# vtk DataFile Version 3.0
vtk output
ASCII
DATASET POLYDATA
POINTS 74136 float
11.976 -156.85 4.3248
11.842 -156.75 3.9743
11.613 -156.59 3.3825
11.358 -156.41 2.6745
11.318 -156.39 2.5645
11.167 -156.28 2.1112
11.05 -156.14 1.7106
10.783 -155.78 0.72281
10.752 -155.72 0.53084
10.722 -155.65 0.32553
10.626 -155.45 -0.37962
10.582 -155.29 -0.85717
10.477 -155.11 -1.6463
10.374 -155.01 -2.1118
10.353 -154.99 -2.1807
10.151 -154.74 -2.9309
9.9887 -154.67 -3.4009
9.8938 -154.62 -3.6945
9.8662 -154.62 -3.8183
9.7518 -154.57 -4.2138
9.6919 -154.55 -4.4137
9.5578 -154.52 -4.9287
9.4933 -154.51 -5.1962
9.4434 -154.49 -5.4341
9.2957 -154.5 -5.9649
9.243 -154.5 -6.1321
8.9772 -154.49 -6.99
8.5651 -154.46 -8.3465
8.5279 -154.46 -8.4681
8.4796 -154.19 -9.3551
8.475 -154.17 -9.3841
8.3443 -153.9 -9.8221
8.3016 -153.81 -9.9774
8.2725 -153.76 -10.083
8.2161 -153.68 -10.23
8.14 -153.58 -10.436
8.0713 -153.46 -10.652
8.0429 -153.41 -10.746
8.0427 -153.41 -10.746
7.9939 -153.3 -10.934
7.9852 -153.29 -10.97
7.985 -153.29 -10.971
7.9729 -153.26 -11.023
7.9608 -153.19 -11.143
7.9132 -153.11 -11.292
7.7099 -152.76 -11.987
7.6839 -152.72 -12.072
7.6557 -152.61 -12.317
7.5944 -152.47 -12.632
7.5397 -152.4 -12.816
7.4351 -152.28 -13.158
7.4394 -151.98 -13.8
7.4404 -151.95 -13.86
7.4411 -151.9 -13.972
7.4392 -151.65 -14.491
7.4419 -151.56 -14.69
7.4241 -151.55 -14.725
7.1968 -151.41 -15.28
7.1752 -151.39 -15.343
6.7269 -150.7 -17.239
6.5581 -150.52 -17.763
6.3961 -150.34 -18.231
6.1762 -149.95 -18.918
6.1759 -149.95 -18.918
6.1528 -149.92 -19.02
5.9742 -149.69 -19.786
5.8641 -149.48 -20.313
5.7092 -149.16 -21.121
5.6315 -148.78 -21.779
5.609 -148.64 -22.3
5.5873 -148.62 -22.447
5.4486 -148.46 -23.256
5.4293 -148.43 -23.389
5.3679 -148.37 -23.719
5.3612 -148.31 -23.918
5.3598 -148.3 -23.979
5.2954 -147.9 -25.469
5.2972 -147.9 -25.492
5.3119 -147.85 -25.702
5.3127 -147.85 -25.707
5.354 -147.64 -26.242
5.3537 -147.64 -26.248
5.3537 -147.64 -26.248
5.351 -147.63 -26.28
5.351 -147.63 -26.28
5.3342 -147.53 -26.532
5.3269 -147.47 -26.693
5.2947 -147.26 -27.236
5.2664 -147.04 -27.902
5.2578 -146.99 -28.105
5.2358 -146.95 -28.343
5.2322 -146.93 -28.4
5.2228 -146.89 -28.621
5.2112 -146.82 -28.983
5.2383 -146.77 -29.364
5.2405 -146.77 -29.414
5.2599 -146.73 -29.734
5.4858 -146.41 -30.654
5.6292 -146.19 -31.326
5.6605 -146.14 -31.486
5.6875 -146.09 -31.642
5.9964 -145.83 -32.325
6.3346 -145.51 -32.753
6.3646 -145.47 -32.834
6.4547 -145.36 -33.053
6.5794 -145.14 -33.601
6.6943 -144.89 -34.357
6.7916 -144.74 -34.939
6.8887 -144.61 -35.478
6.9467 -144.54 -35.653
7.0408 -144.44 -35.967
7.044 -144.44 -35.977
7.1067 -144.37 -36.183
7.1548 -144.31 -36.397
7.1553 -144.31 -36.4
7.2341 -144.17 -36.982
7.242 -144.15 -37.079
7.2474 -144.15 -37.106
7.3237 -144.12 -37.429
7.4825 -143.98 -37.945
7.5338 -143.94 -38.17
7.5519 -143.92 -38.273
7.6218 -143.83 -38.703
7.6238 -143.83 -38.711
7.6549 -143.79 -38.841
7.7599 -143.73 -39.105
8.0661 -143.66 -40.183
8.2974 -143.54 -40.827
8.3183 -143.53 -40.893
8.4585 -143.48 -41.323
8.4653 -143.48 -41.342
8.4689 -143.48 -41.35
8.6292 -143.43 -41.709
8.6772 -143.43 -42.01
8.8321 -143.25 -42.813
8.8748 -143.18 -43.004
8.8868 -143.17 -43.063
8.9534 -143.1 -43.436
9.0109 -142.99 -44.166
9.0382 -142.97 -44.548
9.1326 -142.9 -45.373
9.134 -142.9 -45.387
9.134 -142.9 -45.387
9.1296 -142.8 -46.081
9.129 -142.8 -46.114
9.129 -142.8 -46.115
9.1426 -142.8 -46.446
9.1821 -142.78 -47.346
9.1878 -142.76 -47.53
9.2087 -142.74 -48.003
9.3187 -142.66 -48.294
9.6049 -142.65 -49.12
10.043 -142.64 -50.298
10.138 -142.64 -50.544
10.207 -142.63 -50.72
10.407 -142.7 -51.178
10.444 -142.71 -51.248
10.476 -142.72 -51.311
10.625 -142.62 -51.699
10.639 -142.61 -51.739
10.982 -142.33 -52.817
10.993 -142.31 -52.865
11.883 -141.87 -54.379
11.971 -141.76 -54.561
12.087 -141.64 -54.773
12.124 -141.61 -54.825
12.157 -141.59 -54.87
12.493 -141.47 -55.421
12.878 -141.28 -56.106
12.889 -141.27 -56.125
13.197 -141.13 -56.664
13.244 -141.09 -56.814
13.41 -140.91 -57.457
13.439 -140.88 -57.576
13.458 -140.86 -57.646
13.458 -140.86 -57.646
13.493 -140.83 -57.768
13.566 -140.77 -58.017
13.636 -140.7 -58.241
13.65 -140.69 -58.292
13.685 -140.65 -58.407
13.88 -140.41 -58.928
13.918 -140.37 -59.022
13.956 -140.33 -59.112
14.016 -140.27 -59.248
14.129 -140.19 -59.481
14.278 -140.07 -59.744
14.396 -139.99 -59.918
14.676 -139.74 -60.332
14.891 -139.47 -60.848
15.356 -139.2 -61.882
15.36 -139.19 -61.9
15.802 -138.9 -62.767
16.126 -138.7 -63.537
16.312 -138.6 -63.974
16.365 -138.59 -64.084
16.394 -138.57 -64.17
16.606 -138.35 -65.152
16.766 -138.31 -65.612
17.012 -138.26 -66.165
17.15 -138.26 -66.486
17.287 -138.3 -66.783
17.378 -138.32 -67.03
17.38 -138.32 -67.047
17.388 -138.29 -67.283
17.383 -138.25 -67.557
17.382 -138.24 -67.678
17.428 -138.19 -68.106
17.448 -138.19 -68.283
17.458 -138.19 -68.369
17.474 -138.19 -68.467
17.515 -138.17 -68.661
17.609 -138.11 -68.956
17.624 -138.1 -69.001
17.716 -138.05 -69.273
17.841 -137.98 -69.634
18.285 -137.92 -70.649
18.425 -137.91 -70.949
18.661 -137.92 -71.446
19.264 -137.96 -72.368
19.742 -137.95 -72.786
20.273 -137.89 -73.187
20.493 -137.87 -73.344
20.555 -137.87 -73.387
20.779 -137.85 -73.539
20.875 -137.84 -73.626
21.201 -137.83 -73.913
21.67 -137.84 -74.607
21.8 -137.93 -74.892
21.846 -137.97 -75.124
21.923 -138.02 -75.356
21.984 -138.05 -75.535
22.061 -138.08 -75.704
22.096 -138.09 -75.79
22.199 -138.16 -76.266
22.203 -138.16 -76.303
22.353 -138.19 -76.802
22.409 -138.19 -77.003
22.515 -138.21 -77.393
22.627 -138.22 -77.707
22.696 -138.26 -78.076
22.735 -138.27 -78.165
22.876 -138.28 -78.543
23.179 -138.32 -79.153
23.215 -138.34 -79.232
23.286 -138.38 -79.373
23.779 -138.77 -80.638
23.78 -138.77 -80.643
23.781 -138.77 -80.643
23.874 -138.87 -80.886
23.904 -138.93 -81.013
23.931 -138.95 -81.148
23.937 -138.96 -81.241
23.98 -138.99 -81.471
24.03 -139.03 -81.776
24.061 -139.05 -82.01
24.084 -139.06 -82.17
24.134 -139.09 -82.514
24.215 -139.11 -82.732
24.228 -139.12 -82.768
24.299 -139.14 -82.973
24.34 -139.15 -83.062
24.445 -139.2 -83.314
24.452 -139.2 -83.326
25.097 -139.21 -84.549
25.17 -139.22 -84.661
25.197 -139.22 -84.698
25.197 -139.22 -84.699
25.323 -139.23 -84.862
25.557 -139.26 -85.181
25.877 -139.33 -85.538
25.933 -139.34 -85.584
26.303 -139.39 -85.868
27.089 -139.47 -86.404
27.314 -139.5 -86.542
27.562 -139.54 -86.69
27.74 -139.57 -86.813
27.868 -139.58 -86.9
27.943 -139.59 -86.953
27.997 -139.6 -86.992
28.113 -139.6 -87.098
28.168 -139.6 -87.148
28.204 -139.61 -87.184
28.204 -139.61 -87.185
28.389 -139.6 -87.358
28.526 -139.61 -87.48
29.358 -139.75 -88.079
29.571 -139.82 -88.195
29.572 -139.82 -88.195
29.856 -139.91 -88.457
29.948 -139.94 -88.545
29.958 -139.94 -88.556
30.14 -139.97 -88.746
30.454 -140.04 -89.079
30.498 -140.05 -89.134
30.606 -140.08 -89.291
30.607 -140.08 -89.291
30.788 -140.12 -89.544
30.931 -140.15 -89.731
31.01 -140.17 -89.825
31.311 -140.32 -90.205
31.397 -140.37 -90.313
31.605 -140.44 -90.567
31.704 -140.47 -90.69
31.806 -140.5 -90.83
31.807 -140.5 -90.831
31.983 -140.57 -91.071
32.11 -140.63 -91.236
32.977 -141.08 -92.074
33.67 -141.45 -92.52
33.813 -141.52 -92.613
33.915 -141.57 -92.676
34.627 -141.78 -93.084
34.676 -141.79 -93.105
34.773 -141.81 -93.146
34.84 -141.83 -93.172
35.344 -141.92 -93.34
35.539 -141.96 -93.398
35.541 -141.96 -93.398
35.713 -141.98 -93.458
35.916 -142.02 -93.533
36.289 -142.08 -93.66
36.668 -142.13 -93.732
37.304 -142.33 -93.855
37.782 -142.48 -93.89
38.436 -142.69 -93.905
38.436 -142.69 -93.905
38.978 -142.8 -94.014
39.375 -142.89 -94.119
39.863 -142.98 -94.25
40.03 -143.02 -94.297
40.293 -143.08 -94.374
40.51 -143.12 -94.439
40.882 -143.17 -94.598
41.226 -143.19 -94.808
41.381 -143.19 -94.873
41.815 -143.13 -95.074
42.205 -143.22 -95.34
42.208 -143.22 -95.342
42.461 -143.28 -95.486
42.724 -143.33 -95.65
42.759 -143.34 -95.667
42.998 -143.41 -95.753
43.004 -143.41 -95.757
43.171 -143.42 -95.874
43.262 -143.44 -95.924
43.362 -143.45 -95.98
43.97 -143.53 -96.358
44.531 -143.64 -96.823
44.566 -143.65 -96.847
44.824 -143.71 -97.091
44.922 -143.71 -97.164
45.643 -143.62 -97.762
46.001 -143.57 -98.098
46.128 -143.51 -98.281
46.129 -143.51 -98.282
46.172 -143.5 -98.326
46.639 -143.48 -98.618
46.814 -143.47 -98.747
46.894 -143.46 -98.809
47.024 -143.46 -98.919
47.085 -143.45 -98.969
47.246 -143.43 -99.089
47.395 -143.42 -99.191
48.132 -143.35 -99.649
48.196 -143.36 -99.687
48.287 -143.37 -99.737
48.491 -143.38 -99.865
48.539 -143.38 -99.894
48.846 -143.42 -100.11
49.445 -143.49 -100.48
49.481 -143.49 -100.51
49.607 -143.51 -100.64
49.903 -143.42 -100.86
49.987 -143.4 -100.91
50.008 -143.39 -100.93
50.145 -143.35 -101.01
50.463 -143.27 -101.19
50.468 -143.27 -101.19
50.621 -143.22 -101.33
50.673 -143.2 -101.4
50.925 -143.08 -101.72
50.946 -143.07 -101.74
50.956 -143.06 -101.76
51.012 -143.03 -101.82
51.109 -142.95 -101.97
51.11 -142.95 -101.97
51.258 -142.84 -102.2
51.298 -142.82 -102.26
51.541 -142.66 -102.61
51.631 -142.62 -102.71
51.631 -142.62 -102.71
51.7 -142.58 -102.78
51.702 -142.58 -102.78
52.075 -142.36 -103.29
52.157 -142.3 -103.41
52.406 -142.18 -103.75
52.596 -141.99 -104.11
52.778 -141.81 -104.49
52.851 -141.72 -104.67
52.851 -141.72 -104.67
52.906 -141.65 -104.83
52.931 -141.64 -104.89
53.097 -141.53 -105.27
53.104 -141.53 -105.29
53.283 -141.4 -105.71
53.345 -141.35 -105.91
53.454 -141.23 -106.29
53.503 -141.2 -106.4
53.512 -141.19 -106.45
53.647 -141.06 -106.83
53.682 -141.04 -106.92
53.761 -140.98 -107.12
53.937 -140.84 -107.41
54.408 -140.53 -108.15
54.554 -140.47 -108.39
54.557 -140.47 -108.4
54.62 -140.42 -108.53
54.669 -140.37 -108.64
54.716 -140.35 -108.75
54.779 -140.33 -108.87
55.067 -140.26 -109.25
55.131 -140.25 -109.34
55.133 -140.25 -109.34
55.187 -140.22 -109.45
55.499 -140.12 -110.03
55.586 -140.1 -110.15
55.67 -140.08 -110.27
55.724 -140.07 -110.33
55.739 -140.07 -110.35
55.885 -140.06 -110.51
55.956 -140.05 -110.61
56.005 -140.03 -110.68
56.239 -139.98 -111.02
56.321 -139.97 -111.16
56.325 -139.96 -111.17
56.448 -139.99 -111.42
[...]
POINT_DATA 74136
SCALARS radius double 
LOOKUP_TABLE default 
8.8153
8.7995
8.8061
8.8547
8.8649
8.9003
8.8994
8.892
8.884
8.8778
8.8858
8.8937
8.9033
8.9052
8.9041
8.8755
8.8018
8.764
8.7425
8.6979
8.681
8.6362
8.6207
8.6085
8.5556
8.5438
8.5243
8.6522
8.6717
8.6803
8.6725
8.5697
8.532
8.5071
8.475
8.4335
8.3892
8.3705
8.3704
8.335
8.328
8.3278
8.3173
8.2911
8.2587
8.1388
8.1269
8.0816
8.034
8.0136
7.9802
7.9272
7.9234
7.9199
7.9075
7.9113
7.9098
7.8559
7.8491
7.8924
7.9976
8.0972
8.2225
8.2226
8.1938
8.0354
7.9259
7.8658
7.8802
7.8226
7.8146
7.7837
7.7796
7.7674
7.7493
7.745
7.7674
7.7675
7.7695
7.7694
7.7218
7.7206
7.7206
7.7141
7.714
7.6674
7.6425
7.5799
7.5413
7.5318
7.5173
7.5145
7.5054
7.4948
7.4594
7.4555
7.4301
7.3501
7.3557
7.3643
7.375
7.3133
7.2923
7.277
7.2378
7.112
6.9939
6.9362
6.916
6.9138
6.9193
6.9196
6.9275
6.9336
6.9337
6.9505
6.9549
6.9514
6.9143
6.8821
6.8737
6.8672
6.851
6.8511
6.8538
6.8209
6.7699
6.8102
6.8133
6.8729
6.8755
6.8765
6.9227
6.896
6.9162
6.9299
6.9349
6.968
7.0166
7.0546
7.1596
7.1618
7.1618
7.2223
7.2252
7.2252
7.2436
7.3303
7.3534
7.4243
7.4122
7.3728
7.4373
7.4701
7.4956
7.5265
7.5295
7.5323
7.4353
7.4257
7.2348
7.2289
7.1094
7.0851
7.064
7.0585
7.0541
6.8759
6.6716
6.6668
6.5535
6.5168
6.3919
6.3759
6.3662
6.3661
6.3485
6.3197
6.2995
6.2954
6.2836
6.2254
6.2189
6.2123
6.2055
6.1902
6.1685
6.1472
6.1195
6.0288
5.8586
5.8571
5.7801
5.7793
5.8213
5.8371
5.8413
5.9052
5.9332
5.9795
6.0198
6.0606
6.0902
6.0893
6.0672
6.0424
6.0345
5.9792
5.9617
5.9546
5.9447
5.9145
5.8433
5.8335
5.7819
5.734
5.6767
5.6914
5.7436
5.8609
5.8445
5.8488
5.8557
5.8583
5.8752
5.8747
5.8931
5.9231
5.8573
5.7858
5.7161
5.6665
5.6241
5.6041
5.4956
5.4897
5.3978
5.3638
5.3237
5.2803
5.2723
5.2668
5.2613
5.3
5.3035
5.2958
5.398
5.3991
5.3991
5.4451
5.4712
5.4649
5.4599
5.4531
5.4527
5.4576
5.4621
5.4784
5.4941
5.4964
5.5089
5.5144
5.5345
5.5357
5.3673
5.354
5.3499
5.3499
5.3305
5.3207
5.2992
5.2902
5.2471
5.2018
5.2087
5.2215
5.2373
5.2378
5.2382
5.2389
5.2353
5.2323
5.2297
5.2297
5.2166
5.2083
5.1601
5.145
5.145
5.1136
5.1013
5.0997
5.0716
5.043
5.0396
5.0309
5.0309
5.0295
5.0338
5.0304
5.0024
4.9991
4.9681
4.9553
4.9414
4.9413
4.9274
4.9128
4.8443
4.8262
4.8331
4.8377
4.8357
4.8365
4.8378
4.8387
4.8278
4.8322
4.8322
4.8272
4.8203
4.8171
4.814
4.7813
4.7639
4.8009
4.8009
4.8125
4.8404
4.9004
4.9254
4.9648
5.0058
5.0519
5.0795
5.1099
5.1509
5.0826
5.0819
5.0624
5.038
5.0361
5.0365
5.0358
5.0192
5.0155
5.0103
5.0028
4.9426
4.9435
4.9393
4.9188
4.8385
4.8092
4.8027
4.8027
4.7987
4.7105
4.6791
4.6642
4.636
4.6213
4.5747
4.5347
4.41
4.4033
4.3975
4.3841
4.3824
4.3583
4.3767
4.372
4.3607
4.2572
4.2333
4.2272
4.1865
4.1138
4.1132
4.043
4.0097
3.8615
3.8504
3.8431
3.8057
3.7202
3.7196
3.6011
3.5744
3.4235
3.3861
3.3859
3.3562
3.3554
3.2229
3.2068
3.1546
3.0919
3.0707
3.0742
3.0742
3.0789
3.0758
3.0868
3.0877
3.1324
3.1598
3.2355
3.2598
3.2688
3.3571
3.3762
3.4169
3.4322
3.5915
3.6548
3.6563
3.6899
3.7183
3.7293
3.7352
3.7366
3.7372
3.7373
3.7338
3.7587
3.761
3.7593
3.7531
3.7517
3.7307
3.7232
3.7189
3.7031
3.7
3.6994
3.626
3.6067
3.5507
3.5269
3.4557
3.4285
3.4073
3.391
3.3657
3.3068
3.3032
3.1974
3.197
3.1696
3.1392
3.0477
3.055
3.0665
3.0824
3.1787
3.2189
3.1695
3.1473
3.1194
3.1191
3.0888
3.0589
3.0432
3.022
3.0234
2.9843
2.984
2.9606
2.9594
2.9593
2.961
2.957
2.9563
2.9455
2.945
2.9394
2.9352
2.929
2.9149
2.9146
2.9519
2.9523
2.9523
2.9704
2.9738
2.9815
3.0487
3.0503
3.0739
3.0944
3.0971
3.1419
3.1607
3.2022
3.2465
3.4648
3.4659
3.5737
3.5754
3.5778
3.5402
3.5378
3.5295
3.4715
3.4703
3.4367
3.4247
3.4246
3.416
3.3537
3.279
3.1966
3.1329
3.1296
3.0335
3.0216
3.0214
3.0022
2.9922
2.9921
2.9799
2.9787
3.0081
3.0125
2.9991
2.9905
2.9902
2.9619
2.9599
2.9485
2.9474
2.9139
2.9182
2.925
2.9136
2.9135
2.8813
2.8754
2.8612
2.8611
2.773
2.7157
2.6258
2.6028
2.5262
2.342
2.3198
2.2186
2.1318
2.1073
2.0802
2.0621
2.0019
1.9447
1.8431
1.8403
1.7854
1.7511
1.7286
1.7069
1.6636
1.6093
1.5915
1.571
1.5573
1.5431
1.4444
1.4521
1.4587
1.4619
1.4938
1.5061
1.5103
1.5309
1.5427
1.5529
1.5795
1.6172
1.6537
1.655
1.655
1.6644
1.6761
1.7117
1.7197
1.7374
1.7368
1.7568
1.7455
1.7314
1.7326
1.7429
1.7701
1.7759
1.7846
1.8095
1.8273
1.8439
1.8453
1.8562
1.8556
1.8597
1.8595
1.8567
1.8527
1.8478
1.8415
1.8491
1.8521
1.8563
1.8624
1.8545
1.825
1.8161
1.7852
1.7771
1.754
1.7537
1.7311
1.731
1.7203
1.7192
1.6813
1.6585
1.6577
1.6509
1.6506
1.6684
1.674
1.6793
1.6794
1.6707
1.6578
1.6369
1.6334
1.6137
1.6134
1.5831
1.5829
1.5506
1.5503
1.5309
1.5125
1.4097
1.3747
1.3359
1.2398
1.2204
1.189
1.1879
1.1831
1.1642
1.1533
1.1463
1.1438
1.1423
1.1356
1.1201
1.0925
1.0796
1.0733
1.0646
1.0637
1.0446
1.0421
1.0101
1.0031
0.99238
0.96108
0.94928
0.93768
0.90659
0.90071
0.90066
0.90446
0.928
0.93816
0.94916
1.0031
1.0209
1.0245
1.0468
1.0626
1.0652
1.0777
1.0958
1.0977
1.1015
1.106
1.1245
1.132
1.2396
1.2582
1.2669
1.3298
1.3416
1.3695
1.3895
1.3896
1.4299
1.4383
1.4405
1.442
1.4645
1.4652
1.4716
1.4868
1.4906
1.4929
1.4964
1.4606
1.4524
1.4227
1.4067
1.3949
1.3494
1.3296
1.3295
1.3009
1.3008
1.2596
1.2309
1.2281
1.2371
1.2472
1.2659
1.3417
1.3695
1.374
1.3925
1.4009
1.4018
1.418
1.4227
1.421
1.4156
1.4268
1.4306
1.4465
1.4503
1.4524
1.4698
1.4851
1.4594
1.4005
1.3665
1.3316
1.2744
1.1221
1.1041
1.0362
0.9765
0.96999
0.96173
0.96163
0.90521
0.90475
0.8745
0.88171
0.79836
0.79199
0.77378
0.77389
0.78779
0.81185
0.84199
0.84223
0.97105
0.97938
0.99391
1.0714
1.0718
1.0841
1.0831
1.0832
1.0564
1.0655
1.0632
1.063
1.076
1.0942
1.0994
1.0981
1.0982
1.0716
1.0317
1.0296
1.0081
1.0009
0.97519
0.93102
0.92751
0.87371
0.87334
0.84791
0.83996
0.85058
0.90174
0.88424
0.79834
0.7539
0.69548
0.56725
0.56443
0.53055
0.84043
0.8634
0.89213
0.89233
0.88147
0.86937
0.87399
0.88461
0.88535
0.89045
0.88922
0.87111
0.87104
0.86653
0.86547
0.8667
0.86226
0.86031
0.85246
0.84169
0.83013
0.85186
0.85623
0.8897
0.89688
0.91156
0.91231
0.91823
0.92612
0.92551
0.92546
0.9084
0.92089
0.92038
0.94931
0.96412
0.99206
1.0055
1.0054
1.0084
0.99102
0.99086
0.99085
1.0072
1.0108
1.0137
1.0137
1.016
1.0154
1.0154
1.0106
1.0013
0.9967
1.0158
1.0244
1.0245
1.0265
1.0364
1.065
1.0839
1.0838
1.0798
1.0694
1.0639
1.0621
1.0537
1.0488
1.0466
1.0427
1.0408
0.96567
0.96069
0.90516
0.8806
0.87149
0.87146
0.83149
0.82487
0.82516
0.82827
0.86661
0.8673
0.89623
0.89638
0.89639
0.90396
0.92208
0.9268
0.93997
0.93988
0.93347
0.92656
0.92263
0.92663
0.92808
0.92597
0.92796
0.92632
0.92334
0.92931
0.92899
0.92309
0.92038
0.92032
0.90383
0.90356
0.86821
0.84473
0.83578
0.8353
0.83295
0.77438
0.77347
0.75901
0.7589
0.70363
0.7011
0.66256
0.65079
0.64944
0.66716
0.69662
0.70301
0.70458
0.71004
0.71437
0.70658
0.68048
0.67982
0.6798
0.64714
0.65933
0.65885
0.66587
0.67063
0.66902
0.66802
0.68788
0.70312
0.70372
0.7229
0.7323
0.73707
0.75519
0.7579
0.75791
0.78743
0.79548
0.79762
0.79699
0.79121
0.79081
0.79031
0.80178
0.79376
0.79382
0.86573
0.88772
0.94936
0.97979
0.98584
0.98743
0.98453
0.98589
0.9877
0.98059
0.97713
0.97465
0.95991
0.95859
0.95214
0.93228
0.92998
0.9165
0.89422
0.88954
0.88514
0.88561
0.88049
0.87433
0.85973
0.85019
0.80265
0.79358
0.77869
0.7782
0.76266
0.76728
0.77621
0.77619
0.77687
0.77688
0.77345
0.77056
0.76503
0.76183
0.75891
0.76089
0.76091
0.78293
0.79165
0.84241
0.9088
0.91903
0.93918
0.93869
0.93144
0.90876
0.88579
0.84745
0.77368
0.83627
0.86485
0.94334
0.95887
0.92354
0.91194
0.89186
0.88481
0.88353
0.86067
0.84714
0.8467
0.8333
0.83198
0.83185
0.82974
0.82924
0.81941
0.82222
0.82285
0.82286
0.81503
0.78917
0.75783
0.75535
0.74318
0.7242
0.71679
0.71669
0.71669
0.70741
0.70319
0.69745
0.68286
0.6828
0.67607
0.6716
0.65163
0.62646
0.62198
0.6024
0.60224
0.59508
0.59612
0.60119
0.61724
0.63455
0.63752
0.64064
0.66649
0.66693
0.66797
0.66796
0.66841
0.68609
0.68941
0.69448
0.69424
0.7123
0.71836
0.72328
0.7289
0.72476
0.72457
0.73635
0.73563
0.72808
0.72136
0.71966
0.70905
0.71201
0.71246
0.71213
0.68301
0.68184
0.68164
0.66957
0.66354
0.72816
0.73999
0.74357
0.74543
0.74384
0.7013
0.69745
0.67502
0.66577
0.60422
0.56737
1.4242
1.437
1.4705
1.4767
1.536
1.5392
1.5392
1.6023
1.6076
1.6048
1.5865
1.5058
1.4408
1.3926
1.2189
1.1714
1.1457
1.0814
0.97924
0.95107
0.92328
0.92429
0.92429
0.92072
0.91466
0.88842
0.87481
0.8786
0.87963
0.88074
0.88289
0.88348
0.88572
0.88499
0.88326
0.86202
0.82895
0.82782
0.81347
0.80204
0.81126
0.82369
0.91611
0.97208
0.97466
1.0243
1.0337
1.0566
1.0723
1.0778
1.0999
1.1003
1.1077
1.1047
1.1269
1.2017
1.2112
1.2166
1.2203
1.2173
1.2085
1.1971
1.177
1.1482
1.162
1.1631
1.1616
1.1614
1.1612
1.16
1.1396
1.1388
1.0908
1.0901
1.0514
1.0777
1.1006
1.109
1.1194
1.1293
1.13
1.1376
1.164
1.1707
1.1723
1.1698
1.1675
1.1662
1.1681
1.1681
1.1703
1.1741
1.1789
1.1793
1.235
1.2409
1.2629
1.2748
1.2768
1.2812
1.281
1.2759
1.276
1.2771
1.2865
1.2499
1.2402
1.2617
1.2633
1.2582
1.2582
1.2487
1.2487
1.2379
1.234
1.2161
1.2134
1.2134
1.2075
1.1842
1.1818
1.1808
1.1406
1.1396
1.1233
1.1186
1.1135
1.1048
1.1045
1.0931
1.0811
1.0748
1.0543
1.0457
0.9939
0.98808
0.98806
0.90787
0.90015
0.89838
0.89938
0.92356
0.92759
0.92479
0.92276
0.91983
0.91239
0.90158
0.89862
0.89293
0.88701
0.86949
0.86729
0.85166
0.85039
0.83437
0.82049
0.81116
0.76518
0.76243
0.73371
0.73479
0.81847
0.88411
0.89435
0.91266
0.9128
0.93946
0.94161
0.9679
0.97619
0.97613
0.97597
0.9681
0.96658
0.96149
0.95623
0.94082
0.94456
0.94729
0.94731
0.96056
0.96768
0.96465
0.9646
0.9437
0.9101
0.90972
0.89325
0.89817
0.89827
0.8735
0.85139
0.826
0.73078
0.72126
0.6577
0.61102
0.603
0.90132
0.87299
0.86979
0.73446
0.72264
0.70077
0.68971
0.67113
0.65113
0.6508
0.62062
0.6205
2.9925
2.9875
2.9132
2.9114
2.935
2.9428
2.9455
2.9477
2.9564
2.9565
2.9656
2.9667
2.9219
2.8078
2.8038
2.7683
2.768
2.6877
2.6327
2.6167
2.5895
2.5893
2.5461
2.5353
2.4911
2.4909
2.487
2.3499
2.3088
2.3064
2.255
2.2548
2.2531
2.2515
2.2816
2.2888
2.2866
2.283
2.2875
2.2851
2.2783
2.2716
2.2962
2.3579
2.3862
2.4225
2.4303
2.4368
2.4515
2.4463
2.3181
2.2731
2.2592
2.2103
2.1885
2.1882
2.184
2.1453
2.1418
2.1268
2.0946
2.0456
1.9712
1.947
1.9468
1.9228
1.905
1.8813
1.8812
1.7889
1.7799
1.761
1.7609
1.7391
1.739
1.6826
1.6588
1.6139
1.5978
1.5422
1.5307
1.5119
1.5275
1.5275
1.5506
1.559
1.5603
1.555
1.5499
1.5471
1.5427
1.5419
1.5368
1.5419
1.5383
1.5329
1.5378
1.5383
1.5636
1.5988
1.603
1.5926
1.5726
1.5583
1.549
1.5425
1.5506
1.5506
1.5698
1.5766
1.5845
1.5942
1.5987
1.6126
1.6499
1.6545
1.6926
1.7201
1.726
1.7364
1.7382
1.7444
1.7542
1.7573
1.7905
1.8003
1.801
1.8841
1.9172
2.0008
2.0792
2.0882
2.163
2.1647
2.1802
2.227
2.2285
2.2636
2.2644
2.2759
2.2718
2.2716
2.2707
2.2678
2.2511
2.2473
2.2473
2.2352
2.2351
2.2321
2.2213
2.2094
2.2057
2.1986
2.1942
2.1865
2.1766
2.1756
2.167
2.1655
2.1599
2.121
2.0811
2.0707
2.0722
2.0773
2.0795
2.0832
2.0822
2.0846
2.0846
2.0862
2.0849
2.0661
2.0452
2.0408
2.0277
2.027
2.0206
2.0225
2.0285
2.0327
2.0901
2.0939
2.0979
2.0954
2.0907
2.0766
2.0597
2.0392
2.0374
2.0344
2.0344
2.0343
2.0441
2.0471
2.0473
2.0443
2.0354
2.0368
2.0357
2.0153
2.0006
1.9976
1.9963
1.9908
1.9984
2.0114
2.0477
2.0581
2.059
2.0479
2.0454
2.0216
2.0157
1.984
1.9546
1.936
1.8711
1.8708
1.8575
1.8565
1.8518
1.8518
1.8446
1.8397
1.8284
1.82
1.8164
1.8161
1.8035
1.8034
1.7815
1.7719
1.7683
1.7721
1.773
1.7731
1.794
1.7942
1.7959
1.8002
1.8078
1.8248
1.8254
1.831
1.8226
1.8221
1.8213
1.8164
1.8113
1.8059
1.7912
1.7814
1.7676
1.7591
1.7511
1.689
1.6829
1.8003
1.8086
1.8171
1.8204
1.8218
1.8374
1.8374
1.8368
1.8252
1.8173
1.8123
1.6886
1.6279
1.6234
1.5799
1.5379
1.5125
1.5025
1.4006
1.3847
1.3846
1.2856
1.2814
1.2653
1.2492
1.218
1.1535
1.0984
1.0293
0.95734
0.91998
0.84478
0.76673
0.76578
0.72963
0.71182
0.66923
0.62747
0.60493
0.5652
0.52506
0.52323
0.52321
3.0475
2.959
2.8908
2.8258
2.7409
2.738
2.7522
2.7431
2.735
2.6857
2.6692
2.6567
2.6181
2.6099
2.5876
2.587
2.587
2.5096
2.5035
2.496
2.4351
2.4319
2.3865
2.384
2.3419
2.3356
2.3298
2.2881
2.2876
2.2882
2.3477
2.2917
2.2512
2.186
2.0661
2.0505
2.0101
1.9881
1.9134
1.7966
1.7952
1.7777
1.7646
1.7265
1.7158
1.6978
1.6975
1.6716
1.6557
1.6283
1.6144
1.6144
1.5559
1.552
1.5475
1.4754
1.4269
1.4229
1.2973
1.1978
1.197
1.0835
1.0813
1.0595
1.0538
1.0521
1.0459
1.0085
1.0083
0.98419
0.94664
0.9423
0.91054
0.90143
0.90072
0.89495
0.88762
0.88372
0.86879
0.85875
0.85316
0.8339
0.85318
0.85627
0.85726
0.86137
0.90368
0.90476
0.93335
0.94224
0.95909
0.95723
0.96564
0.9653
0.96492
0.9525
0.94997
0.94755
0.94848
0.95736
0.95734
0.92189
0.92164
0.91408
0.91085
0.89125
0.89017
0.86961
0.83095
0.82789
0.80898
0.80275
0.77961
0.74497
0.74455
0.74226
0.73517
0.72959
0.69851
0.69646
0.65705
0.65471
0.64385
0.60787
0.6069
0.58739
0.54448
0.54302
0.51996
0.50668
0.5017
0.50124
0.53522
0.54074
0.56204
0.56947
0.57095
0.61786
0.65668
0.66386
0.66448
0.66389
0.6597
0.65632
0.64898
0.89168
0.89184
0.89177
0.84252
0.8381
0.83808
0.8143
0.78797
0.77531
0.68716
0.64883
0.64816
3.17
3.2237
3.1675
3.1559
3.1333
3.124
3.0937
3.0888
3.0914
3.0913
3.0762
3.0691
3.0679
3.0269
3.0131
3.013
3.0114
3.0113
2.9839
2.9574
2.9535
2.9418
2.9331
2.9213
2.9167
2.9118
2.9162
2.917
2.9353
2.9394
2.9113
2.9246
2.9269
2.9785
2.9799
2.9912
2.9924
2.9929
2.9946
2.9861
2.9259
2.9165
2.9152
2.9705
2.9739
2.9813
2.9839
3.029
3.0389
3.0632
3.0679
3.0764
3.0779
3.0495
3.0317
2.9892
2.9766
2.902
2.9014
2.8091
2.8069
2.6077
2.5215
2.5111
2.1578
2.0121
2.0098
1.9911
1.9851
1.9014
1.901
1.8638
1.8632
1.7802
1.7799
1.6348
1.6343
1.6146
1.6039
1.6021
1.5874
1.5061
1.3586
1.2914
1.2316
1.1593
1.1438
1.1128
1.0286
0.99856
0.91243
0.8761
0.84753
0.79147
0.75848
0.74356
0.72049
0.71716
0.71512
0.70567
0.69335
0.68635
0.68076
0.66584
0.57965
0.57156
0.51641
0.50204
0.50571
0.50605
0.50395
0.51191
0.57145
0.60587
0.60594
0.66482
0.7296
0.85999
0.95565
0.95522
0.95386
0.94153
0.94054
0.9356
0.9351
0.93934
0.94702
0.95359
0.99501
1.0163
1.0813
1.1178
1.1262
1.1265
1.1267
1.1302
1.1501
1.153
1.187
1.203
1.2132
1.2132
1.2382
1.2501
1.2549
1.2345
1.2282
1.2015
1.1898
1.1799
1.1521
1.1504
1.1167
1.0639
1.0498
0.99609
0.97028
0.96982
0.94706
0.89476
0.87369
0.85104
0.85624
0.85648
0.87613
0.9376
0.95108
0.9778
1.0206
1.0315
1.034
1.0335
1.0469
1.0477
1.0461
1.0401
1.0539
1.0666
1.1686
1.1729
1.242
1.3037
1.3369
1.4424
1.4968
1.5025
1.5233
1.5372
1.5551
1.5549
1.5654
1.5584
1.5381
1.5306
1.5241
1.5235
1.4251
1.3903
1.378
1.3418
1.3222
1.3222
1.321
1.3064
1.3014
1.2763
1.2173
1.2132
1.1881
1.1499
1.0929
1.0496
0.96412
0.91818
0.91799
0.84945
0.84889
0.79513
0.79491
0.75245
0.65789
0.62689
0.62129
0.61304
0.59507
0.58404
0.57712
0.62117
0.62219
0.73724
0.75719
0.75751
0.83746
0.92917
0.94013
1.052
1.0701
1.1129
1.1232
1.1278
1.1581
1.1776
1.1747
1.1634
1.1545
1.1404
1.1294
1.1292
1.1203
1.103
1.0956
1.0808
1.0807
1.0578
1.0493
1.0371
1.0315
1.0309
1.0025
0.99665
0.98529
0.9366
0.93207
0.86292
0.86212
0.85232
0.83948
0.81835
0.81399
0.8056
0.79656
0.81264
0.83879
0.85824
0.87225
0.87685
0.88536
0.89272
0.89221
0.86893
0.85979
0.85536
0.85092
0.83162
0.83154
0.8125
0.80693
0.81716
0.81848
0.8348
0.85074
0.88224
0.8931
0.91258
0.91287
0.91287
0.91323
0.90728
0.87322
0.86299
0.84022
0.83679
0.81907
0.80936
0.80605
0.84903
0.86739
0.94526
0.9732
1.0279
1.0704
1.0799
1.1138
1.1217
1.126
1.126
1.1379
1.1613
1.1783
1.1807
1.1801
1.197
1.1975
1.2064
1.2197
1.2668
1.2695
1.2695
1.273
1.2596
1.2342
1.215
1.1985
1.1951
1.1861
1.1852
1.158
1.1579
1.1528
1.1256
1.1056
1.0912
1.0835
1.0481
1.049
1.0335
1.0533
1.1456
1.1456
1.2624
1.2755
1.2756
1.416
1.4212
1.4232
1.4254
1.508
1.524
1.5713
1.5782
1.6343
1.6848
1.6917
1.7573
1.7963
1.8006
1.7853
1.7298
1.7277
1.6977
1.6895
1.6694
1.6543
1.6495
1.6495
1.6328
1.5938
1.5753
1.5669
1.5669
1.5642
1.5628
1.5604
1.5458
1.5456
1.506
1.4757
1.4595
1.4398
1.399
1.3878
1.3766
1.3326
1.3058
1.3036
1.3399
1.349
1.3506
1.3378
1.2867
1.2758
1.2667
1.2521
1.2322
1.2318
1.1746
1.1744
1.1088
1.085
1.0842
1.0423
1.0346
1.0203
0.92985
0.91611
0.83059
0.82938
0.82305
0.81349
0.82598
0.81685
0.82296
0.83686
0.84006
0.83024
0.82893
0.82083
0.80928
0.78447
0.77526
0.75435
0.74212
0.72797
0.70775
0.69033
0.6817
0.68163
0.67087
0.61274
0.60464
0.59238
0.56967
0.54773
0.54746
0.53985
0.55253
0.57339
0.66071
0.67517
0.68652
0.71497
0.76487
0.76928
0.79168
0.7997
0.84634
0.89887
0.92168
0.9169
0.91998
0.92518
0.91712
0.89946
0.8864
0.88397
0.87013
0.86567
0.84108
0.83984
0.82485
0.81711
0.8037
0.79043
0.77424
0.77021
0.75862
0.75535
0.74969
0.7199
0.68528
0.67997
0.70371
0.70785
0.70787
0.73422
0.75726
0.75889
0.75969
0.75839
0.75838
0.75012
0.748
0.72645
0.69925
0.67827
0.67483
0.66515
0.65517
0.61772
0.6151
0.60973
0.60968
0.65875
0.65978
0.67432
0.67438
0.72989
0.73321
0.76693
0.76721
0.78975
0.79264
0.80795
0.82825
0.86459
0.86553
0.86554
0.83553
0.79244
0.78897
0.75853
0.74515
0.73458
0.68692
0.67656
0.66234
0.65609
0.59912
0.58065
0.56502
0.49324
0.4507
0.42692
3.2583
3.272
3.3754
3.3832
3.4014
3.4288
3.4309
3.4309
3.4393
3.4442
3.5525
3.6574
3.6704
3.6751
3.6873
3.7015
3.7133
3.7404
3.7406
3.7181
3.648
3.6422
3.6331
3.5115
3.4955
3.3043
3.2938
3.1871
3.138
3.1338
3.0849
3.0633
3.0439
3.0408
3.0258
3.0081
2.9246
2.8386
2.8356
2.8133
2.7633
2.7627
2.7592
2.7174
2.6978
2.6634
2.6467
2.5758
2.5559
2.5485
2.5367
2.5366
2.503
2.5029
2.5012
2.5012
2.4515
2.4511
2.408
2.3989
2.3961
2.3701
2.3708
2.3717
2.3715
2.3688
2.3717
2.3716
2.3716
2.396
2.4343
2.4655
2.4668
2.4564
2.4299
2.3833
2.3698
2.3363
2.3355
2.3414
2.3862
2.3984
2.2037
2.0674
2.0223
1.9126
1.7877
1.7693
1.7665
1.7481
1.7299
1.7156
1.687
1.6564
1.6449
1.6427
1.5179
1.5164
1.4125
1.3871
1.3726
1.2738
1.2731
1.2108
1.1599
1.1549
1.1763
1.1901
1.2059
1.2083
1.211
1.2077
1.2052
1.199
1.1231
1.0129
1.0109
0.91181
0.881
0.83431
0.82295
0.78805
0.78382
0.7836
0.80076
0.8021
0.83124
0.8366
0.87271
0.87981
0.91783
0.92137
0.97714
0.988
1.024
1.0222
1.0146
0.98753
0.97375
0.94783
0.92718
0.87743
0.86066
0.81578
0.79592
0.77371
0.76614
0.75241
0.73795
0.72022
0.72024
0.72015
0.71637
0.68129
0.65042
0.64972
0.62968
0.62844
0.62831
0.72271
0.72701
0.73513
0.73741
0.73803
0.73875
0.74184
0.73091
0.71276
0.70502
0.67247
0.68233
0.68888
0.6889
0.69283
0.68753
0.67936
0.66996
0.62613
0.61062
0.59074
0.58949
0.5863
0.55471
0.54966
0.54153
0.54388
0.58755
0.5894
0.58942
0.61271
0.61789
0.65739
0.65835
0.67057
0.67141
0.67639
0.67652
2.4564
2.4542
2.4214
2.3748
2.3716
2.3583
2.3576
2.3576
2.3555
2.362
2.3621
2.3621
2.366
2.3774
2.3945
2.232
2.2091
2.0151
1.9629
1.9251
1.7755
1.7142
1.7118
1.6553
1.6161
1.573
1.5618
1.5374
1.524
1.5185
1.4999
1.4974
1.4847
1.4672
1.4641
1.4003
1.3986
1.3483
1.3453
1.3453
1.3211
1.3036
1.3031
1.2852
1.2744
1.2237
1.2037
1.1729
1.1709
1.0957
1.0948
0.98778
0.91961
0.90989
0.8165
0.81566
0.72988
0.64314
0.5936
0.57276
0.51984
2.3538
2.3534
2.3526
2.3522
2.3473
2.3458
2.3348
2.3296
2.3208
2.2547
1.9784
1.7603
1.5996
1.597
1.5489
1.5403
1.5385
1.4918
1.4914
1.4564
1.4563
1.4463
1.4461
1.4242
1.3458
1.3375
1.2412
1.2025
1.2022
1.165
1.1624
1.1591
1.1663
1.1733
1.2175
1.3531
1.3562
1.5079
1.5292
1.5289
1.5242
1.5183
1.5175
1.5042
1.5023
1.4914
1.4733
1.4485
1.4201
1.3926
1.3444
1.2697
1.2663
1.2203
1.2177
1.2169
1.1961
1.1952
1.1889
1.1888
1.1861
1.1858
1.1858
1.182
1.1728
1.1769
1.1774
1.1808
1.1877
1.1937
1.1937
1.1954
1.1822
1.1767
1.1014
1.0828
1.0526
1.0333
1.0249
1.0009
0.99477
0.96245
0.95954
0.95552
0.90457
0.87229
0.79578
0.79221
0.79194
0.73157
0.71124
0.70223
0.67397
0.68058
0.68119
0.68111
0.68116
0.69268
0.6992
0.70531
0.70719
0.70014
0.70971
0.71126
0.69889
0.69394
0.6769
0.6562
0.65498
0.65127
0.65986
0.66001
0.65571
0.65573
0.69822
0.70887
0.73964
0.76192
0.76535
0.81964
0.82137
0.82139
0.83796
0.83883
0.83979
0.8298
0.83088
0.83088
0.8266
0.82624
0.80699
0.79733
0.78459
0.76135
5.0892
5.294
5.296
5.3447
5.3568
5.3574
5.3615
5.3585
5.3324
5.3323
5.3273
5.3859
5.3884
5.4178
5.4769
5.4824
5.4865
5.4793
5.4792
5.4619
5.4617
5.4329
5.4328
5.3923
5.3741
5.3725
5.368
5.3563
5.348
5.2902
5.2441
5.2433
5.2368
5.2121
5.193
5.1459
5.1019
5.0443
5.0179
4.9598
4.9412
4.8999
4.8762
4.8757
4.8334
4.8286
4.8204
4.7989
4.7988
4.7039
4.6975
4.6192
4.5944
4.5897
4.5828
4.5826
4.5794