# vtk DataFile Version 3.0
vtk output
ASCII
DATASET POLYDATA
POINTS 61516 float
11.976 -156.85 4.3248
9.2087 -142.74 -48.003
40.293 -143.08 -94.374
53.454 -141.23 -106.29
58.916 -141.19 -115.9
64.355 -142.68 -126.14
65.122 -142.05 -128.21
81.48 -145.83 -155.25
84.898 -143.13 -163.83
85.735 -142.33 -164.37
102.36 -131.02 -193.22
103.61 -130.88 -194.1
102.99 -130.13 -193.99
100.2 -149.51 -172.97
100.78 -149.43 -174.27
101.2 -149.29 -173.12
69.078 -132 -165.76
69.057 -131.22 -168.13
70.941 -133.26 -169.8
78.764 -140.3 -133.69
82.255 -140.87 -136.08
79.911 -139.54 -134.16
66.76 -149.03 -139.18
79.125 -157.61 -156.76
66.123 -153.29 -152.29
65.231 -156.33 -156.21
65.884 -152.69 -155.23
58.776 -133.4 -111.58
59.491 -124.43 -126.12
59.301 -132.2 -111.74
63.014 -126.99 -115.69
61.484 -119.7 -102.03
62.262 -118.09 -101.06
56.122 -152.61 -93.641
60.012 -156.32 -95.602
69.382 -164.68 -107.99
80.979 -183.98 -119.46
75.066 -172.24 -123.58
67.164 -163.65 -95.805
77.46 -164.79 -95.188
71.734 -180.98 -93.847
71.704 -193.29 -93.069
72.508 -182.02 -93.646
62.349 -154.53 -82.361
62.875 -158.95 -69.659
65.877 -165.95 -64.526
66.746 -166.11 -63.807
65.35 -175.65 -60.089
64.897 -181.71 -58.322
64.362 -176.85 -60.317
63.42 -153.71 -79.345
75.48 -146.49 -71.763
65.451 -148.65 -67.793
64.586 -144.58 -46.403
69.549 -143.92 -60.75
-0.58222 -139.07 -60.063
-24.168 -137.34 -104.27
-27.373 -137.33 -107.6
-33.564 -137.57 -122.02
-34.64 -137.61 -125.7
-35.041 -137.41 -126.31
-41.894 -134.84 -144.48
-43.604 -130.6 -153.7
-42.986 -125.63 -171.85
-41.452 -122.49 -183.31
-32.17 -119.66 -209.56
-44.682 -117.79 -197.77
-47.938 -118.65 -181.64
-57.979 -105.94 -166.05
-51.181 -133.45 -154.51
-69.522 -125.34 -166.49
-66.89 -129.57 -183.46
-69.324 -130.39 -185.32
-50.028 -143.15 -147.16
-55.516 -148.26 -156.3
-62.72 -154.08 -164.86
-70.28 -159.15 -168.53
-72.656 -160.52 -169.51
-71.123 -160.57 -168.36
-63.551 -154.67 -166.18
-56.897 -150.91 -157.62
-57.861 -145.32 -151.55
-72.223 -147.97 -161.48
-60.872 -145.9 -151.34
-33.891 -128.94 -139.23
-25.631 -124.39 -159.43
-33.53 -117.44 -148.84
-35.528 -108.52 -153.55
-32.852 -114.41 -148.92
-32.752 -149.98 -148.06
-35.087 -151.51 -114.97
-36.692 -154.99 -116.51
-44.361 -182.11 -123.12
-47.019 -191.32 -123.91
-47.231 -197.38 -125.43
-47.934 -193.26 -123.84
-45.824 -186.81 -126.86
-46.669 -190.19 -129.34
-46.304 -187.02 -128.32
-41.566 -169.86 -128.37
-40.178 -155.84 -117.91
-52.44 -172.45 -127.29
-54.365 -175.6 -129.08
-57.479 -178.67 -132.43
-54.779 -176.2 -129.52
-53.424 -173.01 -128.92
-54.941 -164.01 -120.24
-61.308 -163.78 -120.41
-56.378 -164.91 -120.13
-16.48 -137.55 -68.469
-27.825 -138.92 -70.225
-33.106 -141.3 -69.02
-46.998 -163.45 -72.227
-49.632 -166.26 -74.442
-47.339 -168.58 -71.883
-46.991 -176.9 -73.137
-46.335 -187.62 -73.147
-47.419 -192.63 -75.313
-45.354 -192.39 -71.766
-45.61 -181.08 -74.682
-51.447 -177.55 -66.747
-52.118 -181.83 -64.192
-55.232 -179.23 -65.967
-47.4 -148.41 -66.852
-56.112 -149.6 -58.962
-53.444 -148.24 -67.78
-37.129 -132.52 -59.828
-36.026 -121.29 -47.404
-47.313 -126.99 -53.902
-50.557 -126.03 -50.073
-34.781 -142.14 -57.72
-34.582 -132.32 -113.69
-37.943 -129.53 -116.32
-35.118 -131.58 -113.87
-49.393 -122.52 -114.64
-60.554 -124.62 -119.08
-53.986 -117.29 -117.1
-55.677 -115.44 -119.52
-55.601 -114.82 -117.24
-36.861 -121.67 -110.28
-38.764 -110.08 -112.56
-35.167 -116.96 -105.72
-35.205 -114.89 -102.68
-32.904 -116.37 -104.72
-55.277 -121.05 -54.018
-55.913 -120.38 -54.22
61.201 -118.03 -99.15
-67.397 -128.46 -185.22
-57.631 -120.71 -54.558
89.855 -137.87 -161.06
87.216 -138.22 -165.99
115.03 -134 -192.69
116.51 -125.21 -195.09
105.19 -116.83 -187.93
97.075 -116.89 -202.35
99.835 -154.64 -178.78
113.52 -158.48 -179.48
113.71 -156.47 -172.36
110.66 -146.7 -165.34
71.469 -115.57 -171.73
63.373 -121.93 -169.85
66.233 -130.37 -183.3
68.197 -137.67 -180.6
95.591 -138.46 -131.25
94.128 -129.98 -137.41
83.677 -128.84 -134.14
79.276 -163.14 -163.03
83.885 -160.08 -155.2
61.273 -157.19 -166.26
62.508 -161.93 -166.24
65.775 -149.69 -155.68
61.166 -149.81 -156.73
66.45 -111.71 -130.95
56.021 -113.92 -129.75
67.256 -101.7 -104.76
78.431 -110.9 -99.683
67.62 -102.25 -87.054
55.87 -109.85 -83.512
89.758 -137.68 -158.23
92.433 -133.39 -161.21
85.427 -136.3 -166.66
88.767 -138.03 -169.09
123.23 -137.85 -194.95
119.14 -134.97 -188.92
122.97 -121.08 -191.29
124.02 -121.02 -200.34
110.31 -108.68 -185.11
104.66 -109.56 -181.5
99.046 -105.15 -206.89
87.588 -109.48 -207.02
97.588 -154.03 -182.23
97.842 -158.61 -178.23
118.29 -168.48 -179.73
124.33 -161.15 -182.22
117.02 -163.03 -168.17
123 -156.67 -169.58
114.46 -143.03 -160.19
119.18 -145.57 -162
75.751 -106.24 -169.32
68.173 -104.9 -175.98
60.167 -119.1 -166.21
58.037 -120.18 -171.97
62.959 -124.27 -191.46
60.541 -131.84 -192.99
61.328 -142.11 -185.95
69.956 -141.31 -184.08
104.39 -139.85 -131.18
103.15 -135.23 -124.62
103.9 -123.43 -134.65
99.118 -119.93 -139.61
85.492 -133.88 -123.76
82.867 -126.02 -132.97
83.16 -126.68 -137.13
81.466 -169.26 -166.23
79.799 -163.85 -167.46
84.583 -161.09 -152.05
87.891 -159.71 -154.74
60.683 -155.49 -169.91
54.86 -156.32 -171.76
64.382 -166.55 -172.86
59.383 -164.07 -175.39
67.994 -148.26 -155.77
65.461 -146.28 -151.38
71.591 -101.38 -132.01
68.434 -102.87 -136.92
51.877 -108.71 -127.95
53.243 -112.01 -134.79
67.592 -133.26 -116.81
65.18 -121.47 -111.5
65.203 -91.897 -105.11
71.553 -92.555 -110.4
88.479 -105.82 -103.06
88.145 -108.71 -95.06
76.326 -94.312 -76.391
66.555 -89.583 -78.744
52.663 -108.54 -71.29
50.083 -103.47 -78.9
91.83 -138.63 -155.83
87.26 -137.56 -156.54
96.083 -131.74 -161.6
91.861 -128.96 -160.83
83.359 -133.94 -165.5
83.198 -135.19 -168.66
90.602 -135.64 -172.4
88.839 -139.99 -171.03
129.16 -140.1 -193.18
131.19 -138.15 -197.31
118.62 -136.73 -186.58
119.21 -133.47 -186.44
128.32 -121.4 -187.99
124.98 -118.09 -186.99
130.57 -119.23 -201.41
125.95 -115.55 -205.05
115 -105.69 -184.24
112.09 -101.05 -181.84
106.08 -107.3 -175.32
102.27 -103.27 -180.08
104.32 -100.06 -210.51
97.068 -96.27 -207.08
80.239 -106.06 -213.46
82.852 -102.87 -206.87
98.98 -153.11 -184.84
94.927 -151.71 -183.73
97.287 -159.5 -175.79
97.832 -162.19 -179.29
117.08 -174.35 -178.09
125.74 -175.61 -179.01
130.69 -161.34 -186.31
132.01 -164.7 -181.82
114.87 -166.29 -166.28
119.36 -165.04 -163.62
129.73 -159.81 -167.37
127.95 -155.2 -167
113.36 -142.84 -157.26
116.11 -137.76 -160.52
124.43 -146.97 -155.67
125.34 -140.94 -161.57
80.104 -100.62 -169.94
77.527 -99.402 -165.18
69.19 -97.024 -180.15
63.375 -98.901 -176.03
60.397 -116.74 -163.91
56.951 -120.09 -163.37
53.966 -119.78 -171.17
55.928 -120.21 -174.5
63.933 -120.68 -195.12
57.984 -120.01 -196.45
58.472 -135.25 -199.18
56.05 -129.99 -200.81
57.192 -144.15 -186.34
58.608 -145.61 -191.58
71.576 -144.04 -183.7
72.83 -140.24 -186.99
108.45 -140.35 -133.31
108.32 -143.28 -130.5
107.51 -130.94 -119.43
110.1 -134.86 -121.36
110.26 -116.34 -134.2
111.34 -121.74 -132.45
102.49 -110.1 -138.7
101.64 -114.98 -143.37
86.945 -133.98 -121.09
84.414 -123.18 -130.83
79.591 -124.8 -132.45
80.344 -126.42 -139.24
84.089 -127.34 -139.3
85.353 -172.69 -166.55
82.147 -173.09 -170.83
80.873 -162.15 -168.85
78.308 -163.67 -169.89
82.097 -160.78 -149.02
85.271 -159.28 -148.21
90.447 -160.71 -155.9
91.366 -158.95 -152.08
62.949 -154.75 -171.54
60.966 -153.41 -170.17
52.645 -154.28 -174.57
51.116 -155.19 -172.48
59.6 -166.25 -181.82
56.016 -164.08 -181.44
69.138 -145.27 -157.83
55.119 -143.66 -160.07
53.553 -143.78 -154.32
73.362 -91.337 -134.91
78.15 -97.102 -132.41
66.162 -93.161 -139.95
67.723 -100.95 -141.07
50.48 -102.44 -127.76
48.095 -108.33 -124.66
49.944 -112.64 -136.7
53.663 -112 -138.33
65.122 -122.15 -107.13
62.881 -86.916 -102.72
60.074 -87.66 -108.21
78.393 -86.704 -112.05
72.237 -83.329 -113.14
96.972 -101.87 -102.59
92.598 -101.22 -107.14
96.642 -109.33 -94.014
90.936 -107.7 -90.595
79.032 -89.627 -64.086
84.277 -88.157 -74.78
65.822 -82.127 -66.556
64.029 -81.518 -78.249
48.311 -113.33 -68.194
50.921 -101.74 -59.364
45.417 -103.82 -79.29
47.937 -99.146 -80.672
92.641 -138.38 -152.8
93.917 -139.76 -155.45
85.668 -139.25 -154.53
85.366 -136.83 -156.54
97.973 -129.96 -163.45
98.457 -131.89 -160.55
90.009 -126.37 -160.14
92.935 -125.41 -162.09
80.507 -132.65 -164.34
82.602 -130.55 -165.55
82.828 -133.94 -170.67
80.511 -134.81 -169.26
90.544 -132.05 -175.74
93.315 -135.14 -175.47
87.824 -142.18 -171.02
91.607 -141.89 -171.4
130 -141.99 -191.38
133.45 -139.09 -189.9
137.21 -140.11 -200.55
136.5 -138.4 -196.73
118.07 -139.39 -186.87
114.89 -137.6 -185.54
115.88 -131.37 -185.19
118.92 -131.51 -186.46
132.31 -122.35 -187.46
131.7 -121.1 -183.28
125.12 -117.39 -182.68
126.43 -115.19 -186.96
135.69 -117.37 -204.31
134.05 -119.79 -200.54
129.84 -110.97 -208.06
124.6 -111.89 -206.28
116.86 -104.52 -186.95
118.14 -106.17 -181.63
113.5 -95.519 -183.15
113.69 -95.674 -175.78
109.69 -107.72 -171.6
104.69 -108.02 -172.62
100.03 -102 -178.65
100.93 -98.909 -181.41
107.3 -96.618 -215.95
108.34 -98.161 -209.85
93.971 -90.625 -210.33
98.228 -90.807 -204.76
76.583 -99.103 -219.13
73.144 -104.94 -216.09
81.545 -97.67 -206.33
80.202 -102.72 -204.82
101.7 -154.86 -186.06
100.79 -151.09 -185.34
92.122 -152.34 -185.19
94.825 -147.84 -185.41
96.277 -158.1 -174.25
99.58 -159.19 -173.31
99.264 -163.7 -181.08
96.01 -164.91 -179.78
114.44 -177.3 -178.7
115.07 -176.92 -175.52
130.05 -181.74 -180.43
129.96 -178.33 -175.89
135.64 -159.35 -187.29
133.23 -161.89 -189.95
136.85 -163.92 -180.63
137.73 -169.28 -184.38
113.36 -167.85 -166.98
112.63 -166.72 -163.76
121.1 -168.13 -162.15
119.37 -164.71 -159.33
133.26 -163.56 -164.17
135.23 -159.25 -166.17
128.42 -153.59 -166.95
131.11 -153.3 -168.87
112.91 -145.03 -155.88
110.77 -142.66 -156.84
116.83 -133.66 -158.61
115.61 -135.87 -163.63
127.68 -150.15 -152.23
127.74 -145.39 -150.5
129.78 -137.39 -158.62
128.76 -137.47 -163.38
81.685 -96.815 -172.43
83.251 -101.02 -169.68
76.892 -92.301 -164.23
81.688 -95.526 -162.43
71.412 -89.222 -180.6
[...]
POINT_DATA 61516
SCALARS radius double 
LOOKUP_TABLE default 
8.8153
7.4243
4.9648
3.2355
3.0824
3.1966
3.0125
1.418
0.84791
0.53055
0.72457
0.66354
0.56737
0.89325
0.603
0.6205
1.8002
1.6829
0.52321
0.91085
0.64898
0.64816
1.0335
1.0835
0.57339
0.60968
0.42692
2.4343
0.67652
2.3576
0.51984
0.73964
0.76135
3.778
3.4527
1.5497
0.86446
0.85366
1.9629
0.54584
0.90751
0.60616
0.79113
2.4871
1.3046
1.0322
0.75981
0.4508
0.29834
0.26558
2.4291
0.46178
1.1098
0.71864
0.52305
6.2372
4.5392
3.8153
3.345
3.3382
3.2027
2.6053
1.8103
2.2914
1.7821
0.54624
0.51204
0.58613
0.38815
1.4441
0.6021
1.0823
0.58133
1.5523
0.99351
0.68853
0.58793
0.56572
0.46398
0.77836
0.7155
0.86999
0.60006
0.49569
1.2557
0.54135
0.84416
0.6958
0.50558
0.5907
2.0328
2.022
1.0637
0.81838
0.45719
0.56992
0.60735
0.47001
0.34248
0.56012
1.0001
0.92005
0.533
0.45268
0.54856
0.52002
0.70495
0.46999
0.52228
4.3366
2.1968
2.2864
1.1659
0.67377
0.57961
0.47042
0.9255
0.43892
0.44699
0.49507
0.70346
0.49953
0.50428
0.74484
0.6154
0.61311
1.2487
0.8066
1.019
0.89689
0.6279
2.1764
0.58249
2.0543
0.46725
0.45316
0.59697
0.37424
0.31834
0.91875
0.41739
0.7962
0.51109
0.31175
0.72759
0.79884
0.36707
0.77765
0.38374
0.40118
0.46135
0.50173
0.57699
0.37306
0.49337
0.39649
0.52435
0.35477
0.53957
1.4634
1.1065
0.45497
0.34402
0.49072
0.56433
0.56362
0.94219
0.8193
0.40088
0.53016
0.37124
0.32282
0.58828
0.51155
0.57569
0.66204
0.31919
0.31919
0.34885
0.34885
0.34885
0.40118
0.37938
0.43629
0.43629
0.50173
0.3244
0.28208
0.42902
0.37306
0.34477
0.34477
0.45596
0.45596
0.3085
0.3085
0.26826
0.46919
1.1065
1.2725
0.72756
0.96219
0.29915
0.39562
0.29915
0.26013
0.37106
0.42672
0.42672
0.49072
0.49011
0.49011
0.42618
0.8193
0.71243
0.71243
0.6195
0.30312
0.34859
0.13105
0.46101
0.32282
0.12136
0.51155
0.44482
0.44482
0.3868
0.097162
0.45204
0.5006
0.5006
0.5006
0.57569
0.27756
0.24136
0.27756
0.1825
0.30335
0.26378
0.26378
0.30335
0.26378
0.30335
0.34885
0.26378
0.24945
0.3299
0.28687
0.37938
0.3299
0.37938
0.3299
0.43629
0.2133
0.28208
0.24529
0.24529
0.28208
0.37306
0.3244
0.28208
0.2998
0.2998
0.2998
0.2998
0.39649
0.39649
0.34477
0.39649
0.26826
0.26826
0.26826
0.23327
0.23327
0.23327
0.40799
0.3085
0.96219
0.96219
1.1065
0.96219
0.63266
0.63266
0.72756
0.83669
0.26013
0.26013
0.26013
0.34402
0.2262
0.26013
0.19669
0.2262
0.24398
0.32266
0.37106
0.32266
0.37106
0.37106
0.42672
0.32266
0.42618
0.42618
0.32225
0.37059
0.37059
0.71243
0.6195
0.6195
0.46843
0.6195
0.6195
0.46843
0.5387
0.2292
0.26358
0.2292
0.30312
0.40088
0.34859
0.28071
0.28071
0.28071
0.44482
0.44482
0.3868
0.33635
0.33635
0.3868
0.33635
0.29248
0.3418
0.32915
0.4353
0.4353
0.32915
0.4353
0.28622
0.5006
0.4353
0.24136
0.20987
0.20987
0.1825
0.1825
0.24136
0.138
0.1587
0.26378
0.19946
0.22937
0.22937
0.22937
0.19946
0.22937
0.26378
0.22937
0.22937
0.26378
0.19946
0.30335
0.26378
0.22937
0.22937
0.21691
0.21691
0.28687
0.28687
0.21691
0.24945
0.3299
0.24945
0.28687
0.24945
0.3299
0.21691
0.28687
0.21691
0.3299
0.37938
0.18548
0.18548
0.24529
0.2133
0.2133
0.16128
0.2133
0.2133
0.24529
0.24529
0.3244
0.2133
0.24529
0.28208
0.24529
0.18548
0.2607
0.2607
0.2607
0.2607
0.19712
0.2607
0.17141
0.2607
0.34477
0.22669
0.34477
0.2998
0.2998
0.2998
0.2607
0.34477
0.20284
0.23327
0.17639
0.23327
0.23327
0.23327
0.15338
0.20284
0.20284
0.20284
0.20284
0.20284
0.20284
0.35477
0.26826
0.26826
0.83669
0.55014
0.83669
0.63266
0.83669
0.96219
0.83669
0.63266
0.47838
0.55014
0.55014
0.41598
0.41598
0.63266
0.72756
0.47838
0.19669
0.2262
0.2262
0.2262
0.2262
0.17104
0.17104
0.29915
0.19669
0.14873
0.2262
0.17104
0.14873
0.17104
0.19669
0.14873
0.21215
0.18448
0.28057
0.24398
0.32266
0.24398
0.28057
0.24398
0.28057
0.32266
0.28057
0.32266
0.32266
0.37106
0.24398
0.28057
0.37059
0.42618
0.37059
0.28022
0.28022
0.28022
0.24367
0.32225
0.32225
0.32225
0.46843
0.6195
0.46843
0.5387
0.3542
0.5387
0.40733
0.40733
0.46843
0.5387
0.5387
0.40733
0.40733
0.40733
0.46843
0.46843
0.19931
0.19931
0.19931
0.2292
0.17331
0.19931
0.2292
0.26358
0.34859
0.2292
0.30312
0.24409
0.21226
0.21226
0.24409
0.24409
0.3868
0.25433
0.3868
0.29248
0.33635
0.29248
0.25433
0.29248
0.29248
0.25433
0.33635
0.29248
0.29248
0.29248
0.25433
0.22116
0.29722
0.22474
0.39307
0.28622
0.24889
0.37852
0.21642
0.24889
0.37852
0.28622
0.28622
0.28622
0.37852
0.21642
0.24889
0.24889
0.4353
0.28622
0.37852
0.20987
0.1587
0.1587
0.1825
0.1825
0.1825
0.138
0.1587
0.1587
0.138
0.20987
0.1825
0.12
0.10434
0.138
0.138
0.22937
0.22937
0.17344
0.17344
0.19946
0.13114
0.19946
0.19946
0.19946
0.19946
0.17344
0.17344
0.19946
0.19946
0.22937
0.19946
0.15082
0.19946
0.19946
0.15082
0.22937
0.22937
0.17344
0.15082
0.26378
0.26378
0.19946
0.22937
0.17344
0.19946
0.17344
0.19946
0.16402
0.18862
0.18862
0.18862
0.24945
0.24945
0.24945
0.16402
0.16402
0.18862
0.21691
0.21691
0.28687
0.21691
0.18862
0.21691
0.18862
0.24945
0.21691
0.18862
0.18862
0.28687
0.18862
0.18862
0.24945
0.21691
0.18862
0.18862
0.24945
0.28687
0.3299
0.21691
0.14025
0.16128
0.16128
0.12195
0.2133
0.16128
0.18548
0.16128
0.18548
0.16128
0.14025
0.12195
0.14025
0.18548
0.18548
0.14025
0.16128
0.2133
0.2133
0.16128
0.28208
0.28208
0.16128
0.18548
0.2133
0.24529
0.2133
0.14025
0.2133
0.16128
0.16128
0.22669
0.14905
0.22669
0.17141
0.17141
0.22669
0.17141
0.22669
0.14905
0.17141
0.17141
0.22669
0.14905
0.12961
0.17141
0.22669
0.2998
0.2607
0.17141
0.19712
0.22669
0.2998
0.22669
0.2607
0.22669
0.2607
0.2607
0.22669
0.19712
0.2998
0.2998
0.17639
0.13337
0.20284
0.13337
0.15338
0.13337
0.20284
0.15338
0.17639
0.20284
0.17639
0.20284
0.13337
0.13337
0.17639
0.13337
0.17639
0.15338
0.13337
0.17639
0.17639
0.17639
0.17639
0.15338
0.17639
0.17639
0.3085
0.17639
0.23327
0.15338
0.15338
0.23327
0.55014
0.72756
0.47838
0.47838
0.55014
0.72756
0.55014
0.55014
0.63266
0.72756
0.83669
0.55014
0.63266
0.72756
0.41598
0.55014
0.41598
0.41598
0.41598
0.47838
0.47838
0.36172
0.36172
0.31454
0.36172
0.31454
0.36172
0.55014
0.55014
0.63266
0.41598
0.41598
0.17104
0.17104
0.19669
0.12933
0.19669
0.17104
0.19669
0.17104
0.17104
0.19669
0.12933
0.14873
0.12933
0.14873
0.19669
0.26013
0.11246
0.17104
0.11246
0.12933
0.19669
0.17104
0.14873
0.11246
0.12933
0.11246
0.11246
0.14873
0.12933
0.17104
0.11246
0.12933
0.18448
0.18448
0.16042
0.16042
0.24398
0.18448
0.21215
0.16042
0.18448
0.28057
0.18448
0.21215
0.24398
0.21215
0.16042
0.21215
0.24398
0.24398
0.28057
0.21215
0.21215
0.24398
0.16042
0.28057
0.28057
0.28057
0.32266
0.32266
0.21215
0.18448
0.24398
0.21215
0.32225
0.24367
0.32225
0.37059
0.32225
0.21189
0.21189
0.24367
0.24367
0.24367
0.21189
0.24367
0.21189
0.16022
0.28022
0.24367
0.28022
0.24367
0.21189
0.28022
0.308
0.40733
0.5387
0.40733
0.3542
0.40733
0.46843
0.40733
0.308
0.308
0.308
0.46843
0.3542
0.26783
0.3542
0.3542
0.26783
0.40733
0.46843
0.308
0.46843
0.3542
0.3542
0.26783
0.3542
0.308
0.3542
0.308
0.308
0.40733
0.40733
0.40733
0.17331
0.17331
0.17331
0.17331
0.1507
0.17331
0.19931
0.1507
0.13105
0.1507
0.17331
0.17331
0.19931
0.17331
0.1507
0.2292
0.30312
0.26358
0.30312
0.19931
0.1507
0.26358
0.2292
0.1605
0.21226
0.1605
0.18457
0.18457
0.18457
0.21226
0.21226
0.18457
0.21226
0.29248
0.33635
0.22116
0.19231
0.33635
0.22116
0.25433
0.22116
0.29248
0.25433
0.25433
0.25433
0.22116
0.19231
0.19231
0.25433
0.25433
0.22116
0.22116
0.22116
0.19231
0.29248
0.25433
0.19231
0.25433
0.19231
0.22116
0.25433
0.16723
0.22116
0.19231
0.19231
0.25845
0.19543
0.19543
0.16994
0.3418
0.22474
0.21642
0.24889
0.21642
0.18819
0.32915
0.28622
0.16365
0.18819
0.21642
0.18819
0.28622
0.32915
0.24889
0.24889
0.24889
0.21642
0.18819
0.24889
0.32915
0.24889
0.18819
0.16365
0.16365
0.21642
0.18819
0.21642
0.37852
0.28622
0.21642
0.24889
0.24889
0.32915
0.12
0.1825
0.12
0.138
0.138
0.138
0.1587
0.138
0.12
0.1587
0.138
0.1587
0.12
0.12
0.12
0.138
0.138
0.12
0.12
0.12
0.138
0.1825
0.1587
0.138
0.090735
0.10434
0.05966
0.090735
0.12
0.12
0.12
0.090735
0.15082
0.19946
0.19946
0.15082
0.15082
0.15082
0.13114
0.15082
0.17344
0.15082
0.17344
0.13114
0.17344
0.13114
0.17344
0.17344
0.17344
0.13114
0.15082
0.15082
0.15082
0.15082
0.17344
0.17344
0.17344
0.15082
0.17344
0.19946
0.17344
0.13114
0.13114
0.17344
0.15082
0.15082
0.17344
0.13114
0.13114
0.15082
0.19946
0.19946
0.13114
0.15082
0.15082
0.13114
0.13114
0.17344
0.22937
0.17344
0.22937
0.13114
0.17344
0.19946
0.17344
0.15082
0.15082
0.17344
0.15082
0.15082
0.13114
0.17344
0.17344
0.14262
0.14262
0.12402
0.16402
0.16402
0.16402
0.16402
0.12402
0.18862
0.21691
0.16402
0.21691
0.21691
0.16402
0.14262
0.14262
0.14262
0.14262
0.12402
0.16402
0.18862
0.14262
0.18862
0.16402
0.16402
0.24945
0.14262
0.18862
0.16402
0.16402
0.14262
0.18862
0.16402
0.14262
0.10784
0.21691
0.18862
0.14262
0.16402
0.16402
0.16402
0.14262
0.21691
0.24945
0.16402
0.14262
0.16402
0.16402
0.21691
0.18862
0.14262
0.18862
0.16402
0.16402
0.16402
0.12402
0.21691
0.18862
0.18862
0.24945
0.28687
0.16402
0.18862
0.14262
0.12195
0.12195
0.14025
0.10605
0.10605
0.14025
0.10605
0.092214
0.18548
0.14025
0.14025
0.10605
0.12195
0.16128
0.14025
0.14025
0.10605
0.16128
0.12195
0.14025
0.12195
0.10605
0.092214
0.10605
0.12195
0.080186
0.10605
0.16128
0.12195
0.16128
0.12195
0.12195
0.12195
0.14025
0.14025
0.18548
0.18548
0.14025
0.14025
0.12195
0.14025
0.24529
0.14025
0.24529
0.14025
0.10605
0.16128
0.12195
0.18548
0.2133
0.2133
0.12195
0.18548
0.16128
0.12195
0.092214
0.18548
0.14025
0.14025
0.14025
0.14025
0.14025
0.19712
0.19712
0.11271
0.12961
0.19712
0.11271
0.14905
0.12961
0.14905
0.11271
0.14905
0.19712
0.14905
0.14905
0.12961
0.19712
0.12961
0.11271
0.14905
0.12961
0.14905
0.14905
0.19712
0.12961
0.12961
0.11271
0.11271
0.14905
0.12961
0.19712
0.12961
0.2607
0.19712
0.14905
0.22669
0.12961
0.14905
0.17141
0.14905
0.19712
0.17141
0.2607
0.2607
0.19712
0.17141
0.17141
0.22669
0.12961
0.19712
0.19712
0.22669
0.11271
0.22669
0.14905
0.17141
0.19712
0.17141
0.17141
0.2607
0.17141
0.19712
0.2607
0.15338
0.10085
0.11598
0.13337
0.17639
0.11598
0.11598
0.11598
0.13337
0.11598
0.11598
0.17639
0.13337
0.10085
0.13337
0.15338
0.15338
0.17639
0.13337
0.13337
0.15338
0.11598
0.17639
0.11598
0.11598
0.11598
0.11598
0.10085
0.15338
0.11598
0.11598
0.13337
0.15338
0.13337
0.11598
0.11598
0.10085
0.15338
0.10085
0.15338
0.11598
0.15338
0.15338
0.15338
0.11598
0.11598
0.13337
0.15338
0.11598
0.13337
0.15338
0.26826
0.26826
0.13337
0.15338
0.15338
0.20284
0.13337
0.13337
0.13337
0.11598
0.15338
0.20284
0.36172
0.47838
0.36172
0.63266
0.31454
0.41598
0.41598
0.41598
0.47838
0.41598
0.36172
0.63266
0.47838
0.47838
0.47838
0.47838
0.55014
0.47838
0.55014
0.63266
0.72756
0.55014
0.41598
0.47838
0.55014
0.47838
0.63266
0.41598
0.36172
0.36172
0.47838
0.36172
0.27352
0.36172
0.36172
0.36172
0.36172
0.36172
0.31454
0.41598
0.41598
0.41598
0.31454
0.31454
0.31454
0.31454
0.27352
0.23784
0.31454
0.31454
0.27352
0.27352
0.23784
0.31454
0.47838
0.36172
0.31454
0.47838
0.31454
0.55014
0.31454
0.36172
0.36172
0.36172
0.14873
0.12933
0.12933
0.14873
0.12933
0.17104
0.11246
0.11246
0.11246
0.17104
0.12933
0.14873
0.17104
0.11246
0.14873
0.11246
0.14873
0.097792
0.11246
0.17104
0.097792
0.11246
0.12933
0.11246
0.11246
0.11246
0.12933
0.085037
0.17104
0.12933
0.2262
0.17104
0.097792
0.097792
0.097792
0.14873
0.097792
0.097792
0.11246
0.085037
0.097792
0.17104
0.14873
0.097792
0.12933
0.097792
0.097792
0.097792
0.097792
0.11246
0.085037
0.097792
0.097792
0.085037
0.12933
0.097792
0.097792
0.11246
0.14873
0.11246
0.085037
0.097792
0.11246
0.097792
0.16042
0.13949
0.13949
0.16042
0.13949
0.13949
0.13949
0.13949
0.21215
0.16042
0.16042
0.13949
0.13949
0.18448
0.13949
0.13949
0.16042
0.16042
0.18448
0.24398
0.16042
0.16042
0.18448
0.16042
0.18448
0.21215
0.18448
0.13949
0.13949
0.13949
0.13949
0.18448
0.21215
0.18448
0.21215
0.21215
0.24398
0.24398
0.18448
0.18448
0.18448
0.18448
0.18448
0.21215
0.13949
0.10548
0.1213
0.24398
0.24398
0.18448
0.18448
0.24398
0.28057
0.24398
0.24398
0.28057
0.18448
0.18448
0.16042
0.1213
0.16042
0.21215
0.18448
0.13949
0.28022
0.28022
0.21189
0.18425
0.21189
0.28022
0.24367
0.32225
0.28022
0.28022
0.21189
0.18425
0.18425
0.16022
0.18425
0.18425
0.21189
0.21189
0.21189
0.18425
0.21189
0.18425
0.18425
0.18425
0.21189
0.18425
0.16022
0.13932
0.13932
0.21189
0.24367
0.18425
0.21189
0.13932
0.24367
0.21189
0.18425
0.13932
0.18425
0.24367
0.16022
0.26783
0.23289
0.3542
0.46843
0.308
0.3542
0.308
0.308
0.23289
0.3542
0.308
0.308
0.40733
0.3542
0.3542
0.26783
0.23289
0.26783
0.26783
0.26783
0.26783
0.26783
0.40733
0.26783
0.308
0.23289
0.23289
0.308
0.308
0.308
0.308
0.23289
0.23289
0.3542
0.23289
0.3542
0.40733
0.26783
0.23289
0.26783
0.40733
0.26783
0.308
0.26783
0.308
0.23289
0.23289
0.26783
0.308
0.23289
0.26783
0.308
0.308
0.26783
0.26783
0.26783
0.23289
0.26783
0.3542
0.26783
0.3542
0.308
0.3542
0.13105
0.1507
0.13105
0.1507
0.1507
0.1507
0.13105
0.1507
0.13105
0.13105
0.1507
0.13105
0.1507
0.17331
0.13105
0.13105
0.13105
0.13105
0.1507
0.1507
0.13105
0.1507
0.17331
0.1507
0.1507
0.1507
0.13105
0.13105
0.13105
0.19931
0.19931
0.26358
0.2292
0.1507
0.19931
0.26358
0.13105
0.17331
0.13105
0.19931
0.2292
0.19931
0.17331
0.13956
0.12136
0.18457
0.13956
0.12136
0.13956
0.1605
0.12136
0.18457
0.1605
0.1605
0.1605
0.1605
0.18457
0.13956
0.18457
0.18457
0.1605
0.13956
0.18457
0.18457
0.21226
0.22116
0.25433
0.29248
0.25433
0.19231
0.16723
0.16723
0.16723
0.19231
0.29248
0.16723
0.19231
0.16723
0.22116
0.19231
0.16723
0.25433
0.25433
0.16723
0.22116
0.22116
0.22116
0.22116
0.22116
0.19231
0.16723
0.16723
0.16723
0.14541
0.16723
0.16723
0.22116
0.22116
0.16723
0.19231
0.16723
0.19231
0.19231
0.19231
0.16723
0.16723
0.16723
0.16723
0.25433
0.22116
0.16723
0.14541
0.16723
0.22116
0.22116
0.16723
0.14541
0.16723
0.19231
0.22116
0.16723
0.14541
0.14541
0.16723
0.19231
0.16723
0.14541
0.16723
0.14541
0.22474
0.19543
0.16994
0.16994
0.14777
0.16994
0.14777
0.14777
0.19543
0.29722
0.19543
0.19543
0.18819
0.16365
0.16365
0.21642
0.16365
0.18819
0.16365
0.12374
0.28622
0.18819
0.24889
0.16365
0.1423
0.1423
0.1423
0.16365
0.18819
0.18819
0.16365
0.16365
0.24889
0.24889
0.21642
0.28622
0.21642
0.18819
0.21642
0.18819
0.21642
0.16365
0.18819
0.16365
0.16365
0.16365
0.21642
0.21642
0.28622
0.24889
0.16365
0.21642
0.1423
0.16365
0.1423
0.12374
0.1423
0.1423
0.18819
0.16365
0.16365
0.1423
0.18819
0.16365
0.16365
0.32915
0.21642
0.24889
0.18819
0.16365
0.21642
0.1423
0.21642
0.21642
0.28622
0.16365
0.090735
0.10434
0.1587
0.12
0.10434
0.10434
0.10434
0.12
0.090735
0.12
0.12
0.10434
0.138
0.10434
0.12
0.090735
0.10434
0.10434
0.138
0.138
0.12
0.10434
0.12
0.138
0.10434
0.10434
0.10434
0.090735
0.10434
0.090735
0.0789
0.12
0.12
0.10434
0.090735
0.10434
0.10434
0.090735
0.10434
0.0789
0.12
0.090735
0.1587
0.10434
0.090735
0.138
0.090735
0.12
0.0789
0.051878
0.090735
0.0789
0.045111
0.051878
0.0789
0.0789
0.10434
0.068608
0.090735
0.10434
0.090735
0.10434
0.0789
0.0789
0.13114
0.13114
0.13114
0.17344
0.13114
0.17344
0.13114
0.13114
0.13114
0.13114
0.13114
0.13114
0.13114
0.13114
0.15082
0.13114
0.13114
0.13114
0.15082
0.15082
0.13114
0.13114
0.15082
0.15082
0.13114
0.13114
0.15082
0.13114
0.13114
0.13114
0.13114
0.13114
0.13114
0.13114
0.13114
0.13114
0.15082
0.13114
0.15082
0.15082
0.13114
0.13114
0.13114
0.15082
0.13114
0.15082
0.17344
0.15082
0.15082
0.13114
0.15082
0.13114
0.13114
0.13114
0.13114
0.13114
0.13114
0.15082
0.13114
0.13114
0.17344
0.15082
0.17344
0.13114
0.13114
0.13114
0.13114
0.13114
0.13114
0.15082
0.17344
0.19946
0.15082
0.15082
0.13114
0.19946
0.15082
0.13114
0.17344
0.15082
0.15082
0.13114
0.13114
0.13114
0.13114
0.13114
0.13114
0.15082
0.13114
0.13114
0.13114
0.13114
0.15082
0.13114
0.15082
0.15082
0.10784
0.12402
0.12402
0.10784
0.10784
0.10784
0.14262
0.14262
0.14262
0.14262
0.14262
0.14262
0.14262
0.14262
0.10784
0.10784
0.14262
0.16402
0.18862
0.14262
0.14262
0.10784
0.14262
0.18862
0.12402
0.10784
0.14262
0.10784
0.12402
0.12402
0.12402
0.12402
0.12402
0.12402
0.12402
0.10784
0.10784
0.10784
0.14262
0.10784
0.16402
0.10784
0.12402
0.12402
0.16402
0.10784
0.14262
0.14262
0.10784
0.12402
0.21691
0.12402
0.10784
0.16402
0.14262
0.14262
0.14262
0.14262
0.12402
0.12402
0.12402
0.12402
0.16402
0.14262
0.14262
0.12402
0.12402
0.10784
0.18862
0.14262
0.16402
0.12402
0.12402
0.14262
0.14262
0.14262
0.10784
0.14262
0.12402
0.12402
0.14262
0.18862
0.14262
0.21691
0.12402
0.14262
0.12402
0.12402
0.14262
0.12402
0.14262
0.14262
0.14262
0.18862
0.16402
0.12402
0.12402
0.14262
0.16402
0.12402
0.14262
0.14262
0.14262
0.10784
0.10784
0.10784
0.14262
0.18862
0.14262
0.16402
0.16402
0.16402
0.21691
0.21691
0.24945
0.10784
0.14262
0.12402
0.14262
0.16402
0.12402
0.10784
0.10605
0.092214
0.10605
0.092214
0.12195
0.092214
0.080186
0.092214
0.080186
0.092214
0.092214
0.12195
0.092214
0.080186
0.069727
0.092214
0.16128
0.12195
0.080186
0.12195
0.080186
0.092214
0.080186
0.10605
0.092214
0.14025
0.12195
0.10605
0.12195
0.10605
0.12195
0.092214
0.080186
0.14025
0.092214
0.092214
0.10605
0.12195
0.10605
0.092214
0.10605
0.080186
0.092214
0.080186
0.080186
0.092214
0.092214
0.10605
0.092214
0.069727
0.069727
0.092214
0.092214
0.14025
0.080186
0.10605
0.10605
0.092214
0.14025
0.10605
0.092214
0.10605
0.092214
0.10605
0.12195
0.12195
0.12195
0.10605
0.092214
0.16128
0.10605
0.16128
0.12195
0.080186
0.092214
0.12195
0.10605
0.10605
0.12195
0.10605
0.16128
0.2133
0.10605
0.12195
0.2133
0.14025
0.10605
0.12195
0.092214
0.080186
0.14025
0.10605
0.10605
0.092214
0.16128
0.16128
0.12195
0.18548
0.14025
0.18548
0.10605
0.10605
0.080186
0.16128
0.12195
0.10605
0.14025
0.10605
0.092214
0.080186
0.080186
0.10605
0.16128
0.092214
0.12195
0.12195
0.092214
0.10605
0.12195
0.12195
0.092214
0.12195
0.10605
0.17141
0.12961
0.12961
0.17141
0.11271
0.11271
0.11271
0.17141
0.12961
0.12961
0.11271
0.11271
0.12961
0.12961
0.11271
0.12961
0.17141
0.12961
0.12961
0.12961
0.12961
0.12961
0.11271
0.11271
0.17141
0.12961
0.11271
0.11271
0.11271
0.12961
0.11271
0.11271
0.11271
0.12961
0.11271
0.12961
0.17141
0.12961
0.11271
0.11271
0.11271
0.11271
0.12961
0.12961
0.11271
0.11271
0.17141
0.11271
0.11271
0.11271
0.11271
0.22669
0.17141
0.11271
0.12961
0.12961
0.19712
0.11271
0.11271
0.11271
0.12961
0.11271
0.14905
0.14905
0.12961
0.12961
0.14905
0.17141
0.14905
0.14905
0.22669
0.22669
0.19712
0.22669
0.11271
0.17141
0.12961
0.14905
0.12961
0.14905
0.19712
0.19712
0.11271
0.11271
0.11271
0.17141
0.17141
0.14905
0.12961
0.19712
0.14905
0.19712
0.11271
0.12961
0.14905
0.14905
0.12961
0.17141
0.14905
0.12961
0.12961
0.14905
0.22669
0.14905
0.12961
0.14905
0.17141
0.14905
0.22669
0.17141
0.087695
0.13337
0.11598
0.087695
0.087695
0.087695
0.10085
0.11598
0.11598
0.10085
0.15338
0.10085
0.087695
0.10085
0.10085
0.10085
0.10085
0.11598
0.11598
0.10085
0.10085
0.10085
0.10085
0.15338
0.11598
0.10085
0.11598
0.087695
0.087695
0.11598
0.087695
0.13337
0.13337
0.13337
0.13337
0.15338
0.11598
0.11598
0.11598
0.13337
0.10085
0.087695
0.10085
0.15338
0.11598
0.10085
0.087695
0.087695
0.10085
0.10085
0.10085
0.10085
0.10085
0.087695
0.087695
0.13337
0.10085
0.10085
0.10085
0.10085
0.10085
0.10085
0.11598
0.13337
0.10085
0.087695
0.11598
0.10085
0.10085
0.10085
0.10085
0.087695
0.087695
0.087695
0.13337
0.087695
0.087695
0.13337
0.10085
0.087695
0.10085
0.13337
0.11598
0.13337
0.11598
0.11598
0.13337
0.10085
0.10085
0.10085
0.087695
0.10085
0.11598
0.13337
0.11598
0.10085
0.11598
0.11598
0.13337
0.11598
0.15338
0.23327
0.13337
0.23327
0.11598
0.10085
0.13337
0.13337
0.13337
0.13337
0.17639
0.13337
0.087695
0.11598
0.11598
0.11598
0.10085
0.11598
0.10085
0.10085
0.11598
0.13337
0.17639
0.11598
0.27352
0.31454
0.31454
0.41598
0.31454
0.31454
0.55014
0.27352
0.27352
0.27352
0.36172
0.36172
0.36172
0.23784
0.36172
0.41598
0.36172
0.36172
0.23784
0.31454
0.27352
0.41598
0.55014
0.41598
0.36172
0.41598
0.41598
0.41598
0.31454
0.41598
0.31454
0.31454
0.47838
0.36172
0.41598
0.47838
0.47838
0.55014
0.41598
0.36172
0.63266
0.47838
0.47838
0.31454
0.36172
0.36172
0.41598
0.47838
0.41598
0.41598
0.31454
0.41598
0.55014
0.27352
0.36172
0.31454
0.31454
0.31454
0.31454
0.41598
0.36172
0.31454
0.31454
0.23784
0.23784
0.31454
0.31454