# vtk DataFile Version 3.0
vtk output
ASCII
DATASET POLYDATA
POINTS 30896 float
-13.093 -177.88 140.66
-19.662 -176.91 128.09
-48.987 -177.47 97.581
-50.143 -177.63 95.569
-56.477 -175.13 87.16
-62.136 -170.17 78.201
-74.185 -167.55 70.8
-77.04 -168.53 69.035
-98.081 -170.41 57.743
-103.12 -173.25 54.666
-104.23 -173.69 53.064
-63.431 -167.47 74.264
-63.838 -159.47 63.915
-57.688 -136.26 53.396
-57.397 -177.58 75.676
-57.652 -180.89 67.734
-54.164 -179.85 122.5
-57.744 -181.24 124.65
-65.609 -188.99 126.48
-70.717 -196.28 126.58
-79.979 -215 127.52
-84.39 -225.09 126.77
-85.321 -228.18 127.6
-66.137 -193.61 87.461
-69.099 -200.41 85.401
-75.076 -215.1 83.176
-78.469 -225.47 81.681
-82.992 -239.07 81.499
-74.357 -274.66 84.307
-75.688 -198.56 85.381
-88.424 -211.87 77.495
-98.539 -220.34 71.864
-64.599 -151.39 49.991
-60.352 -147.08 38.432
-58.423 -137.06 18.61
-51.134 -150.28 27.751
-70.282 -142.8 40.095
-71.436 -140.39 37.46
-70.898 -143.1 38.85
-68.794 -161.45 66.484
-78.179 -145.63 62.632
-78.99 -141.17 61.631
-82.187 -142.3 62.533
-84.361 -152.28 52.862
-90.744 -144.16 45.24
-91.454 -150.6 46.541
-113.19 -177.85 50.148
-99.288 -170.05 57.385
-85.297 -171.01 66.47
-84.189 -162.53 68.844
-98.365 -158.84 65.976
-106.15 -158.77 65.783
-100.45 -157.32 64.149
-85.885 -161.04 69.501
-66.951 -187.9 55.704
-71.433 -191.49 51.722
-68.547 -186.75 53.141
-56.638 -166.97 90.334
-55.599 -163.56 91.226
-50.629 -147.83 99.181
-51.314 -157.07 85.368
-49.556 -156.65 82.494
-50.856 -155.71 84.803
-61.859 -157.38 91.712
-64.154 -138.1 91.23
-63.714 -155.28 92.719
-89.559 -212 75.986
-74.265 -217.13 83.491
-88.793 -245.15 81.758
-79.083 -229.55 79.554
-74.121 -211.83 78.764
-88.89 -201.57 83.968
-99.395 -199.78 83.458
-101.62 -197.39 83.417
-101.17 -199.82 82.95
-98.319 -205.95 83.991
-62.733 -172.99 126.37
-65.534 -164.79 131.43
-70.036 -154.67 135.24
-71.168 -143.59 136.88
-75.792 -148.46 139.54
-76.656 -147.29 140.5
-78.548 -146.15 139.7
-64.361 -159.06 137.95
-62.258 -157.1 140.38
-64.018 -156.11 142.61
-73.616 -168.15 127.63
-75.59 -167.04 128.4
-92.933 -165.43 122.55
-64.747 -184.92 135.86
-65.426 -186.8 143.4
-70.5 -182.24 145.59
-71.549 -183.03 147.37
-71.225 -181.07 147.23
-78.541 -190.25 129.51
-82.319 -190.89 131.61
-83.552 -190.06 132.19
-84.789 -191.48 133.26
-85.817 -192.18 135.01
-84.867 -191.89 135.5
-90.215 -192.74 127.84
-94.158 -190.91 127.3
-75.911 -214.04 132.53
-75.153 -215.33 132.8
-95.264 -194.89 126.55
-88.281 -221.18 128.87
-84.628 -228.22 125.11
-77.505 -228.78 139.96
-103.89 -176.58 50.886
-101.76 -173.66 47.583
-52.218 -131.68 55.481
-59.353 -122.44 52.831
-54.637 -128.16 11.559
-67.388 -126.15 9.9155
-44.423 -157.36 18.637
-43.827 -156.03 28.198
-73.411 -127.53 37.115
-76.998 -133.33 32.745
-72.361 -147.66 38.69
-70.936 -148.07 35.316
-78.9 -131.16 60.468
-81.063 -127.46 64.533
-88.393 -128.05 66.739
-89.846 -135.14 67.687
-97.081 -131.03 42.256
-102.96 -138.2 34.672
-95.443 -152.7 43.936
-92.866 -153.14 39.235
-123.15 -175.12 39.426
-125.25 -184.89 46.066
-103.04 -170.49 59.045
-98.992 -168.25 53.647
-86.573 -173.92 72.424
-84.274 -174.55 66.588
-115.13 -151.07 63.478
-113.36 -153.87 71.812
-100.18 -154.42 63.11
-102.72 -152.08 65.683
-84.154 -158.83 71.307
-88.585 -160.92 76.116
-72.285 -200.71 48.042
-72.361 -193.68 43.413
-65.01 -187.93 41.907
-67.444 -183.16 49.352
-43.404 -145.86 102.17
-47.341 -143.52 108.89
-44.462 -160.4 80.337
-43.476 -153.65 80.222
-47.896 -154.01 87.587
-51.751 -154.43 87.085
-61.109 -123.46 94.736
-72.647 -126.37 95.33
-66.209 -155.62 97.196
-67.439 -159.4 93.088
-105.32 -180.97 51.392
-101.41 -182.52 50.988
-102.34 -173.98 42.181
-98.446 -176.21 43.849
-47.619 -131.51 52.657
-49.916 -132.58 58.811
-57.444 -114.4 49.093
-59.819 -112.93 56.589
-51.085 -126.35 0.32147
-50.868 -123.11 12.741
-69.464 -117.44 -1.4927
-73.844 -117.19 8.8028
-44.276 -160.41 11.88
-37.831 -167.2 14.773
-41.596 -162.04 31.427
-39.639 -154.84 31.416
-77.307 -118.22 36.181
-71.637 -120.95 36.223
-78.009 -133.17 28.614
-69.993 -151.17 41.428
-68.067 -149.76 33.447
-73.071 -151.43 30.239
-78.857 -130.14 58.115
-75.331 -128.65 62.114
-81.944 -116.29 62.494
-79.065 -120.44 67.718
-94.426 -120.54 72.863
-93.568 -118.03 66.069
-90.677 -135.3 73.029
-93.519 -135.58 67.819
-97.767 -121.32 39.238
-103.37 -124.58 44.162
-107.86 -132 25.096
-113.27 -136.25 31.233
-97.621 -151.81 44.176
-96.325 -154.69 44.616
-93.333 -157.51 35.769
-91.45 -153.73 34.435
-128.33 -168.74 33.811
-134.7 -174.98 33.329
-129.05 -192.83 44.871
-137 -190.05 38.741
-104.54 -170.47 62.316
-105.88 -173.08 60.729
-96.04 -168.48 51.847
-83.657 -177.09 77.178
-88.998 -177.58 74.104
-80.39 -176.75 67.373
-85.257 -177.07 64.354
-121.73 -146.19 65.057
-121.19 -148.52 59.089
-116.39 -145.91 77.374
-116.78 -154.99 75.078
-101 -153.89 61.257
-98.312 -153.58 62.858
-103.07 -148.82 65.385
-102.99 -151.46 68.219
-82.559 -155.76 70.166
-79.864 -158.93 71.283
-91.779 -159.85 78.825
-88.18 -159.81 80.703
-75.482 -206.69 43.334
-75.767 -206.75 48.392
-75.531 -191.99 38.529
-75.51 -196.12 39.622
-58.073 -192.64 36.441
-60.433 -186.35 38.191
-62.451 -180.75 49.189
-67.916 -180.05 49.914
-39.07 -144.83 100.53
-38.152 -152.39 106.46
-45.292 -135.51 114.57
-42.889 -146.1 115.14
-42.495 -163.13 74.991
-40.937 -164.34 83.107
-40.95 -148.79 79.638
-39.098 -153.48 76.218
-44.865 -155.49 89.688
-46.858 -156.25 91.528
-53.967 -155.03 88.053
-54.131 -150.31 86.742
-55.728 -116.87 94.912
-61.896 -111.9 100.82
-77.551 -119.73 101.41
-78.87 -118.61 94.624
-69.426 -153 98.839
-63.945 -159.03 101.69
-69.254 -164.15 95.304
-68.369 -160.8 90.976
-107.64 -182.88 48.853
-107.92 -182.99 53.072
-101.45 -188.22 47.332
-100.55 -186.73 53.188
-104.08 -172.53 39.519
-103.41 -177.45 37.696
-96.121 -176.25 40.892
-97.187 -179.96 41.202
-45.74 -129.52 49.321
-43.995 -134.14 51.723
-51.034 -134.82 61.086
-46.462 -129.99 62.221
-57.475 -109.18 44.572
-52.512 -110.51 47.584
-61.761 -103.91 56.416
-57.239 -108.46 61.01
-48.387 -129.58 -5.3061
-47.947 -121.6 -6.2182
-47.769 -123.49 15.089
-50.906 -116.92 13.732
-66.219 -111.04 -7.9374
-76.828 -109.43 -8.5236
-74.206 -109.91 10.86
-80.906 -114.12 7.357
-42.617 -158.21 7.133
-48.133 -161.94 9.9846
-32.749 -171.89 8.1858
-35.696 -175.2 14.281
-42.323 -164.34 34.898
-36.371 -166.64 33.961
-39.353 -153.26 35.179
-36.938 -151.8 30.32
-77.905 -110.76 33.538
-78.913 -110.91 38.371
-68.91 -119.6 33.642
-68.992 -119.93 37.317
-78.206 -135.34 24.298
-75.886 -132.1 26.443
-76.148 -149.71 43.082
-67.86 -152.09 45.397
-67.314 -153.58 41.805
-64.786 -150.61 33.734
-65.499 -147.74 30.697
-73.041 -156.1 27.585
-73.602 -150.95 25.173
-81.15 -130.38 56.405
-77.717 -131.56 56.004
-72.684 -129.51 61.664
-73.592 -129.7 65.383
-80.253 -108.1 62.79
-83.924 -107.52 62.637
-75.639 -118.74 69.557
-78.591 -119.33 70.934
-97.81 -117.99 78.645
-100.68 -115.3 75.205
-99.041 -112.93 66.713
-95.184 -110.73 64.253
-88.192 -135.16 75.76
-92.537 -136.76 76.792
-94.599 -136.32 66.056
-96.576 -133.77 67.235
-99.074 -113.51 39.889
-99.206 -115.82 34.467
-106.07 -122.11 47.528
-109.31 -120.94 43.489
-108.72 -125.39 19.735
-115.03 -129.36 17.958
-119.81 -133.4 32.639
-119.99 -138.03 26.206
-99.347 -149.99 42.715
-98.043 -149.76 45.823
-96.391 -155.23 46.935
-95.454 -155.9 44.721
-91.077 -161.08 33.602
-96.965 -158.89 32.542
-90.462 -151.64 32.204
-92.723 -153.79 29.372
-127.44 -165.75 30.106
-132.53 -163.88 34.885
-142.27 -173.25 24.92
-141.41 -172.06 34.89
-128.31 -195.44 47.016
-126.22 -198.81 41.828
-145.1 -191.12 38.356
-145.41 -198.47 31.187
-106.81 -168.94 63.684
-103.36 -170.41 64.899
-109.11 -174.29 59.684
-109.21 -174.67 63.372
-93.582 -169.26 52.333
-93.217 -167.06 50.506
-102.4 -164.68 53.52
-79.319 -180.27 78.804
-83.838 -179.66 80.563
-90.059 -180.37 73.192
-91.944 -177.79 76.618
-77.249 -177.69 66.582
-77.444 -180.58 69.127
-86.077 -181.54 63.735
-85.411 -176.58 61.846
-128.52 -146.71 67.042
-124.38 -140.02 64.51
-128.02 -147.96 57.592
-122.62 -148.88 55.765
-116.33 -140.02 80.171
-119.97 -143.01 81.5
-117.2 -157.76 75.844
-122.24 -156.56 74.691
-102.77 -154.2 60.811
-101.49 -154.84 59.532
-95.401 -152.74 61.132
-97.274 -153.97 63.656
-104.65 -146.69 65.845
-102.99 -146.43 62.648
-101.4 -151.47 70.104
-104.33 -151.74 69.464
-82.753 -153.4 70.419
-80.451 -154.17 67.307
-76.34 -156.9 71.622
-94.679 -161.07 82.124
-93.826 -158.33 79.068
-89.231 -159.85 85.175
-86.765 -157.33 82.283
-83.05 -213.43 40.874
-73.689 -212.52 40.381
-82.24 -210.31 47.977
-77.439 -207.65 51.366
-75.339 -189.59 33.875
-78.841 -189.94 37.4
-79.962 -196.8 37.6
-75.646 -198.08 38.239
-53.307 -195.71 37.075
-54.223 -193.8 30.547
-58.991 -183.66 37.764
-61.497 -184.69 33.113
-58.265 -182.65 50.556
-59.818 -178.63 51.971
-68.813 -179.26 52.252
-69.97 -178.05 47.611
-36.663 -141.73 100.94
-38.649 -143.23 98.017
-32.55 -155.05 107.07
-37.344 -159.14 109.58
-44.88 -130.49 115.18
-42.512 -130.69 121.46
-40.962 -146.08 120.12
-38.415 -148.06 118.3
-44.647 -164.14 71.689
-37.799 -166.28 71.465
-40.515 -166.86 86.618
-35.733 -166.38 83.103
-38.747 -144.82 81.004
-40.624 -145.38 77.796
-37.981 -152.1 72.071
-33.994 -154.8 74.937
-41.594 -153.89 90.018
-43.917 -156.5 89.05
-46.412 -160.09 93.68
-47.691 -157.11 94.106
-54.202 -156.78 89.058
-57.104 -157.18 85.467
-56.744 -148.86 83.888
-54.328 -146.3 86.688
-54.023 -112.6 90.46
-51.068 -116.81 94.711
-62.358 -102.3 99.94
-60.738 -106 109.5
-79.12 -120.78 103.97
-82.813 -111.39 105.78
-80.154 -115.47 92.087
-84.963 -111.81 96.292
-73.807 -151.43 98.386
-69.525 -149.54 100.28
-63.059 -158.63 105.18
-72.588 -165.59 96.096
-66.246 -162.51 88.873
-69.913 -159.26 88.54
-108.88 -182.89 46.335
-111.01 -182.89 47.188
-109.84 -185.64 53.799
-110.12 -182.85 54.301
-103.4 -192.79 45.422
-100.12 -191.88 46.153
-101 -188.82 55.97
-98.149 -188.61 53.54
-104.9 -170.14 38.887
-106.86 -172.08 39.729
-103.23 -177.93 33.247
-106.41 -180.49 35.622
-93.63 -177.21 39.549
-94.727 -174.65 40.279
-96.005 -181.35 38.547
-97.412 -181.99 40.465
-46.736 -127.86 47.326
[...]
POINT_DATA 30896
SCALARS radius double 
LOOKUP_TABLE default 
7.5462
6.1741
4.3788
4.5653
3.7432
2.5054
1.5097
1.0293
0.93115
0.93971
0.59394
2.0119
1.5527
0.94046
1.3896
0.86218
3.1308
2.5627
1.789
1.4613
1.2809
0.91572
0.31562
2.3034
1.3546
1.2498
1.0697
1.033
0.77185
1.307
1.0475
0.83454
1.7705
1.3624
1.1703
0.58539
1.2685
0.83608
0.90794
1.2689
0.70111
0.73802
0.38526
1.2864
0.53948
0.83451
0.47523
0.75224
0.6511
0.79664
0.95744
0.74472
0.64515
0.59313
0.90925
0.7703
0.6212
1.265
1.1376
0.6339
1.0029
0.73047
0.61234
0.86034
0.83696
0.869
0.63159
0.54458
0.48599
0.77461
0.81916
0.96589
0.85902
0.61829
0.79946
0.67231
1.6903
1.3338
1.1998
0.56372
0.90673
0.71466
0.57422
0.59257
0.58554
0.34249
0.73466
0.71553
0.86514
1.0501
0.94804
0.7908
0.53649
0.67964
0.97098
0.77655
0.53199
0.56229
0.60722
0.68261
0.69902
0.50327
0.84715
0.98983
0.74658
0.61101
0.39349
0.66287
0.51647
0.51647
0.71112
0.81779
0.8849
1.0176
0.50904
0.38491
0.72703
0.6322
0.59698
0.78951
0.42197
0.64176
0.33501
0.25332
0.35472
0.46912
0.47713
0.72566
0.41324
0.41324
0.65412
0.65412
0.56617
0.56617
0.64758
0.64758
0.48783
0.561
0.44849
0.51576
0.66983
0.66983
0.54018
0.54018
0.47932
0.55121
0.63519
0.55234
0.53247
0.53247
0.63287
0.7278
0.75566
0.57138
0.4491
0.39052
0.4491
0.39052
0.61837
0.53771
0.61837
0.71112
0.76948
0.76948
0.8849
0.8849
0.38491
0.44264
0.3347
0.29104
0.6322
0.54974
0.54974
0.51912
0.51912
0.68653
0.36693
0.36693
0.55805
0.42197
0.29132
0.22028
0.22028
0.19154
0.30845
0.26822
0.40793
0.40793
0.4149
0.36078
0.47713
0.63101
0.23627
0.35934
0.27171
0.35934
0.374
0.5688
0.5688
0.49232
0.42811
0.49232
0.42811
0.56311
0.56311
0.56311
0.48966
0.4242
0.4242
0.48783
0.4242
0.38999
0.38999
0.44849
0.38999
0.58246
0.50649
0.44042
0.58246
0.46972
0.40845
0.46972
0.35518
0.36243
0.4168
0.47932
0.4168
0.55234
0.48029
0.48029
0.48029
0.40263
0.46302
0.35011
0.46302
0.47854
0.55032
0.47854
0.63287
0.65709
0.49686
0.49686
0.43205
0.39052
0.29529
0.33958
0.33958
0.29529
0.39052
0.33958
0.29529
0.53771
0.40659
0.40659
0.46757
0.53771
0.53771
0.53771
0.61837
0.66911
0.66911
0.58184
0.66911
0.66911
0.76948
0.76948
0.76948
0.3347
0.25308
0.38491
0.38491
0.22007
0.29104
0.25308
0.25308
0.54974
0.41568
0.41568
0.47803
0.47803
0.47803
0.39253
0.4514
0.34133
0.4514
0.4514
0.59698
0.39253
0.31907
0.27745
0.31907
0.27745
0.42197
0.48526
0.31907
0.36693
0.25332
0.22028
0.19154
0.19154
0.14484
0.19154
0.12594
0.16656
0.26822
0.26822
0.23323
0.23323
0.30845
0.35472
0.35472
0.30845
0.36078
0.36078
0.31372
0.31372
0.4149
0.4149
0.36078
0.54871
0.20545
0.17866
0.31247
0.27171
0.17866
0.23627
0.20545
0.31247
0.32521
0.32521
0.49461
0.49461
0.32521
0.49461
0.374
0.42811
0.42811
0.32371
0.37227
0.32371
0.42811
0.37227
0.32371
0.4258
0.48966
0.48966
0.37026
0.48966
0.37026
0.32196
0.4258
0.36887
0.27892
0.36887
0.27892
0.4242
0.36887
0.32075
0.36887
0.25642
0.33912
0.33912
0.38999
0.33912
0.33912
0.33912
0.50649
0.50649
0.44042
0.38298
0.38298
0.38298
0.50649
0.33302
0.40845
0.40845
0.26856
0.35518
0.40845
0.30885
0.26856
0.30885
0.31516
0.31516
0.31516
0.36243
0.31516
0.4168
0.36243
0.31516
0.48029
0.48029
0.41765
0.41765
0.41765
0.3158
0.36317
0.41765
0.35011
0.35011
0.40263
0.30444
0.20018
0.30444
0.40263
0.40263
0.41612
0.36184
0.41612
0.47854
0.36184
0.41612
0.55032
0.41612
0.43205
0.57138
0.43205
0.43205
0.32669
0.37569
0.33958
0.33958
0.25677
0.19416
0.29529
0.25677
0.29529
0.25677
0.25677
0.25677
0.29529
0.33958
0.29529
0.22328
0.25677
0.16883
0.30744
0.46757
0.30744
0.35355
0.35355
0.30744
0.40659
0.35355
0.40659
0.46757
0.46757
0.46757
0.46757
0.46757
0.53771
0.46757
0.58184
0.50595
0.50595
0.58184
0.43995
0.50595
0.43995
0.58184
0.58184
0.58184
0.58184
0.66911
0.66911
0.38257
0.66911
0.50595
0.22007
0.29104
0.19137
0.22007
0.25308
0.3347
0.29104
0.3347
0.19137
0.19137
0.22007
0.25308
0.22007
0.22007
0.22007
0.22007
0.36146
0.47803
0.36146
0.36146
0.31431
0.36146
0.41568
0.36146
0.36146
0.36146
0.41568
0.41568
0.31431
0.34133
0.29681
0.39253
0.39253
0.25809
0.29681
0.39253
0.34133
0.39253
0.4514
0.51912
0.34133
0.34133
0.27745
0.27745
0.24126
0.24126
0.27745
0.24126
0.24126
0.36693
0.27745
0.42197
0.36693
0.20979
0.27745
0.24126
0.31907
0.14484
0.22028
0.19154
0.19154
0.14484
0.16656
0.16656
0.16656
0.12594
0.12594
0.12594
0.16656
0.095232
0.10952
0.14484
0.12594
0.23323
0.23323
0.23323
0.17636
0.20281
0.15335
0.20281
0.20281
0.26822
0.23323
0.30845
0.30845
0.30845
0.17636
0.26822
0.23323
0.31372
0.31372
0.31372
0.20628
0.2728
0.20628
0.2728
0.17937
0.31372
0.36078
0.36078
0.31372
0.31372
0.31372
0.47713
0.36078
0.17866
0.13509
0.15535
0.13509
0.27171
0.23627
0.23627
0.17866
0.15535
0.15535
0.20545
0.20545
0.17866
0.15535
0.27171
0.23627
0.28279
0.28279
0.28279
0.28279
0.28279
0.4301
0.4301
0.374
0.28279
0.24591
0.24591
0.4301
0.28279
0.32371
0.37227
0.24477
0.37227
0.28149
0.28149
0.24477
0.32371
0.28149
0.28149
0.37227
0.32371
0.32371
0.21285
0.28149
0.24477
0.37026
0.37026
0.32196
0.4258
0.4258
0.4258
0.27997
0.32196
0.4258
0.4258
0.32196
0.32196
0.27997
0.24345
0.32196
0.37026
0.32075
0.24254
0.27892
0.32075
0.2109
0.24254
0.32075
0.36887
0.32075
0.32075
0.27892
0.27892
0.32075
0.32075
0.22298
0.22298
0.25642
0.29489
0.22298
0.29489
0.33912
0.33912
0.22298
0.29489
0.29489
0.29489
0.29489
0.25642
0.44042
0.44042
0.44042
0.44042
0.28959
0.38298
0.25181
0.33302
0.33302
0.28959
0.33302
0.25181
0.28959
0.44042
0.28959
0.28959
0.30885
0.35518
0.35518
0.35518
0.23353
0.23353
0.26856
0.30885
0.35518
0.35518
0.23353
0.26856
0.17659
0.23353
0.26856
0.23353
0.27405
0.2383
0.27405
0.20722
0.27405
0.27405
0.27405
0.31516
0.27405
0.27405
0.36243
0.27405
0.27405
0.31516
0.27405
0.2383
0.41765
0.3158
0.41765
0.36317
0.27461
0.36317
0.36317
0.36317
0.36317
0.3158
0.27461
0.27461
0.3158
0.3158
0.3158
0.36317
0.30444
0.26473
0.30444
0.20018
0.35011
0.26473
0.26473
0.17407
0.17407
0.20018
0.35011
0.30444
0.30444
0.35011
0.27361
0.36184
0.27361
0.31465
0.36184
0.36184
0.41612
0.41612
0.31465
0.23792
0.31465
0.36184
0.23792
0.47854
0.36184
0.36184
0.37569
0.37569
0.49686
0.37569
0.32669
0.32669
0.28408
0.37569
0.18679
0.28408
0.32669
0.24703
0.29529
0.14681
0.19416
0.29529
0.19416
0.22328
0.16883
0.14681
0.25677
0.25677
0.22328
0.22328
0.25677
0.19416
0.22328
0.19416
0.22328
0.16883
0.22328
0.22328
0.25677
0.25677
0.29529
0.14681
0.25677
0.19416
0.19416
0.22328
0.14681
0.14681
0.26734
0.26734
0.30744
0.40659
0.26734
0.26734
0.30744
0.30744
0.30744
0.26734
0.26734
0.23247
0.35355
0.30744
0.30744
0.30744
0.26734
0.35355
0.40659
0.35355
0.30744
0.40659
0.40659
0.30744
0.35355
0.40659
0.40659
0.35355
0.35355
0.46757
0.40659
0.26734
0.38257
0.50595
0.43995
0.38257
0.43995
0.43995
0.50595
0.38257
0.33267
0.38257
0.33267
0.43995
0.38257
0.38257
0.43995
0.50595
0.43995
0.50595
0.50595
0.50595
0.50595
0.43995
0.58184
0.58184
0.58184
0.43995
0.33267
0.33267
0.58184
0.38257
0.33267
0.43995
0.19137
0.16641
0.25308
0.16641
0.16641
0.16641
0.16641
0.19137
0.22007
0.22007
0.25308
0.29104
0.25308
0.19137
0.22007
0.29104
0.16641
0.1447
0.16641
0.1447
0.19137
0.19137
0.22007
0.19137
0.19137
0.1447
0.12583
0.19137
0.19137
0.19137
0.19137
0.19137
0.27332
0.31431
0.36146
0.41568
0.27332
0.31431
0.27332
0.31431
0.27332
0.23767
0.27332
0.31431
0.27332
0.36146
0.27332
0.31431
0.31431
0.31431
0.31431
0.31431
0.36146
0.31431
0.36146
0.27332
0.27332
0.27332
0.29681
0.25809
0.25809
0.34133
0.29681
0.34133
0.29681
0.22443
0.19515
0.25809
0.25809
0.34133
0.25809
0.22443
0.29681
0.34133
0.34133
0.34133
0.39253
0.29681
0.29681
0.4514
0.25809
0.29681
0.29681
0.25809
0.24126
0.20979
0.24126
0.18243
0.20979
0.15863
0.20979
0.18243
0.18243
0.24126
0.18243
0.20979
0.20979
0.18243
0.20979
0.31907
0.24126
0.24126
0.24126
0.31907
0.36693
0.31907
0.24126
0.18243
0.18243
0.24126
0.20979
0.20979
0.15863
0.27745
0.20979
0.10952
0.12594
0.19154
0.14484
0.16656
0.12594
0.12594
0.16656
0.095232
0.12594
0.14484
0.10952
0.14484
0.14484
0.14484
0.12594
0.10952
0.10952
0.10952
0.095232
0.10952
0.095232
0.14484
0.08281
0.08281
0.08281
0.095232
0.095232
0.12594
0.10952
0.10952
0.095232
0.15335
0.20281
0.20281
0.20281
0.17636
0.20281
0.15335
0.13335
0.17636
0.13335
0.13335
0.13335
0.15335
0.17636
0.17636
0.13335
0.23323
0.23323
0.20281
0.20281
0.26822
0.20281
0.17636
0.26822
0.26822
0.23323
0.15335
0.15335
0.20281
0.23323
0.20281
0.17636
0.2728
0.2728
0.23722
0.2728
0.2728
0.23722
0.17937
0.17937
0.17937
0.23722
0.17937
0.17937
0.23722
0.20628
0.23722
0.2728
0.2728
0.31372
0.31372
0.31372
0.23722
0.2728
0.2728
0.20628
0.2728
0.23722
0.4149
0.2728
0.31372
0.31372
0.15535
0.13509
0.11747
0.11747
0.13509
0.10215
0.11747
0.11747
0.15535
0.23627
0.13509
0.20545
0.20545
0.13509
0.11747
0.15535
0.13509
0.13509
0.088824
0.13509
0.17866
0.15535
0.17866
0.13509
0.15535
0.13509
0.13509
0.13509
0.23627
0.17866
0.20545
0.20545
0.24591
0.18594
0.24591
0.18594
0.18594
0.24591
0.24591
0.24591
0.24591
0.18594
0.28279
0.374
0.28279
0.374
0.32521
0.24591
0.18594
0.24591
0.21383
0.18594
0.21383
0.21383
0.18594
0.374
0.24591
0.21383
0.32521
0.21285
0.28149
0.21285
0.32371
0.21285
0.21285
0.32371
0.21285
0.16094
0.24477
0.24477
0.21285
0.18508
0.28149
0.16094
0.24477
0.18508
0.24477
0.16094
0.32371
0.18508
0.28149
0.24477
0.24477
0.28149
0.18508
0.18508
0.24477
0.18508
0.21285
0.21285
0.32196
0.27997
0.27997
0.32196
0.27997
0.27997
0.27997
0.37026
0.37026
0.24345
0.32196
0.37026
0.24345
0.24345
0.27997
0.27997
0.37026
0.37026
0.32196
0.37026
0.27997
0.24345
0.27997
0.27997
0.2117
0.24345
0.2117
0.2117
0.27997
0.2117
0.32196
0.32196
0.2109
0.24254
0.27892
0.2109
0.2109
0.2109
0.24254
0.24254
0.27892
0.2109
0.2109
0.27892
0.24254
0.32075
0.27892
0.27892
0.2109
0.27892
0.24254
0.2109
0.2109
0.24254
0.27892
0.24254
0.2109
0.27892
0.19389
0.19389
0.19389
0.19389
0.19389
0.22298
0.19389
0.25642
0.19389
0.19389
0.25642
0.29489
0.22298
0.29489
0.19389
0.19389
0.22298
0.25642
0.25642
0.19389
0.19389
0.25642
0.22298
0.25642
0.1686
0.22298
0.38298
0.33302
0.38298
0.28959
0.25181
0.38298
0.38298
0.28959
0.16557
0.25181
0.33302
0.25181
0.19041
0.21897
0.28959
0.28959
0.28959
0.28959
0.25181
0.21897
0.28959
0.21897
0.19041
0.21897
0.25181
0.21897
0.28959
0.38298
0.25181
0.25181
0.21897
0.25181
0.26856
0.26856
0.26856
0.30885
0.30885
0.26856
0.30885
0.30885
0.20307
0.20307
0.17659
0.20307
0.23353
0.17659
0.26856
0.20307
0.30885
0.26856
0.20307
0.30885
0.15355
0.20307
0.23353
0.23353
0.15355
0.13352
0.20307
0.20307
0.17659
0.23353
0.20307
0.20307
0.2383
0.20722
0.18019
0.20722
0.2383
0.13625
0.15669
0.18019
0.2383
0.20722
0.2383
0.18019
0.2383
0.18019
0.27405
0.2383
0.2383
0.2383
0.20722
0.2383
0.31516
0.31516
0.2383
0.2383
0.2383
0.2383
0.27405
0.18019
0.2383
0.20722
0.20722
0.18019
0.36317
0.3158
0.27461
0.27461
0.27461
0.36317
0.3158
0.3158
0.18056
0.23879
0.27461
0.3158
0.3158
0.3158
0.27461
0.3158
0.27461
0.3158
0.27461
0.27461
0.23879
0.23879
0.23879
0.27461
0.27461
0.27461
0.20764
0.27461
0.27461
0.3158
0.3158
0.17407
0.26473
0.17407
0.2302
0.26473
0.2302
0.17407
0.17407
0.20018
0.30444
0.2302
0.2302
0.20018
0.26473
0.17407
0.17407
0.2302
0.30444
0.26473
0.2302
0.26473
0.26473
0.30444
0.2302
0.20688
0.23792
0.27361
0.31465
0.23792
0.20688
0.23792
0.27361
0.31465
0.31465
0.31465
0.27361
0.36184
0.36184
0.36184
0.31465
0.27361
0.20688
0.20688
0.20688
0.27361
0.27361
0.27361
0.31465
0.1799
0.20688
0.20688
0.41612
0.31465
0.23792
0.31465
0.23792
0.32669
0.24703
0.24703
0.32669
0.37569
0.28408
0.43205
0.2148
0.32669
0.28408
0.28408
0.24703
0.28408
0.18679
0.24703
0.24703
0.24703
0.32669
0.2148
0.24703
0.28408
0.28408
0.2148
0.2148
0.25677
0.14681
0.14681
0.16883
0.22328
0.25677
0.16883
0.14681
0.16883
0.19416
0.14681
0.14681
0.22328
0.22328
0.22328
0.19416
0.16883
0.19416
0.19416
0.16883
0.22328
0.19416
0.16883
0.16883
0.14681
0.19416
0.16883
0.16883
0.19416
0.14681
0.14681
0.14681
0.19416
0.16883
0.16883
0.19416
0.22328
0.19416
0.16883
0.22328
0.19416
0.25677
0.16883
0.22328
0.14681
0.16883
0.16883
0.16883
0.19416
0.16883
0.14681
0.23247
0.23247
0.23247
0.20215
0.26734
0.26734
0.23247
0.35355
0.23247
0.20215
0.23247
0.17578
0.26734
0.26734
0.26734
0.26734
0.26734
0.23247
0.23247
0.20215
0.23247
0.23247
0.17578
0.20215
0.23247
0.30744
0.20215
0.26734
0.26734
0.26734
0.23247
0.26734
0.23247
0.20215
0.30744
0.23247
0.35355
0.35355
0.30744
0.26734
0.26734
0.26734
0.35355
0.23247
0.30744
0.35355
0.26734
0.26734
0.26734
0.30744
0.23247
0.35355
0.35355
0.30744
0.30744
0.30744
0.30744
0.26734
0.40659
0.30744
0.35355
0.26734
0.23247
0.23247
0.33267
0.33267
0.43995
0.28928
0.38257
0.28928
0.28928
0.33267
0.38257
0.33267
0.38257
0.28928
0.43995
0.43995
0.33267
0.33267
0.28928
0.28928
0.33267
0.28928
0.28928
0.28928
0.38257
0.28928
0.33267
0.28928
0.33267
0.33267
0.33267
0.38257
0.43995
0.33267
0.38257
0.38257
0.43995
0.43995
0.33267
0.43995
0.33267
0.43995
0.43995
0.38257
0.33267
0.38257
0.38257
0.50595
0.43995
0.50595
0.38257
0.50595
0.28928
0.38257
0.28928
0.25154
0.28928
0.28928
0.50595
0.38257
0.33267
0.33267
0.28928
0.28928
0.38257
0.28928
0.1447
0.16641
0.12583
0.1447
0.12583
0.22007
0.1447
0.1447
0.1447
0.1447
0.1447
0.1447
0.12583
0.1447
0.16641
0.1447
0.19137
0.16641
0.19137
0.16641
0.1447
0.22007
0.22007
0.25308
0.16641
0.22007
0.1447
0.16641
0.19137
0.19137
0.16641
0.25308
0.12583
0.1447
0.12583
0.10941
0.1447
0.12583
0.12583
0.10941
0.16641
0.1447
0.16641
0.1447
0.19137
0.1447
0.1447
0.16641
0.16641
0.10941
0.12583
0.12583
0.10941
0.10941
0.16641
0.10941
0.1447
0.16641
0.16641
0.16641
0.12583
0.16641
0.16641
0.10941
0.23767
0.23767
0.27332
0.27332
0.27332
0.31431
0.36146
0.31431
0.20667
0.23767
0.27332
0.23767
0.20667
0.23767
0.27332
0.23767
0.23767
0.20667
0.20667
0.17971
0.23767
0.27332
0.23767
0.23767
0.23767
0.31431
0.20667
0.17971
0.23767
0.23767
0.27332
0.27332
0.27332
0.27332
0.20667
0.23767
0.27332
0.23767
0.27332
0.27332
0.31431
0.27332
0.20667
0.31431
0.23767
0.17971
0.23767
0.23767
0.23767
0.23767
0.22443
0.25809
0.19515
0.22443
0.22443
0.22443
0.29681
0.22443
0.25809
0.25809
0.29681
0.25809
0.25809
0.25809
0.19515
0.19515
0.22443
0.22443
0.19515
0.22443
0.29681
0.29681
0.19515
0.22443
0.19515
0.19515
0.22443
0.25809
0.29681
0.25809
0.22443
0.29681
0.22443
0.29681
0.25809
0.34133
0.19515
0.25809
0.22443
0.25809
0.25809
0.39253
0.22443
0.22443
0.22443
0.25809
0.25809
0.22443
0.22443
0.22443
0.13794
0.20979
0.15863
0.18243
0.18243
0.20979
0.13794
0.15863
0.18243
0.13794
0.13794
0.13794
0.18243
0.15863
0.15863
0.15863
0.13794
0.20979
0.15863
0.15863
0.13794
0.18243
0.13794
0.18243
0.18243
0.15863
0.15863
0.18243
0.15863
0.27745
0.20979
0.15863
0.20979
0.20979
0.18243
0.20979
0.18243
0.27745
0.18243
0.31907
0.24126
0.27745
0.24126
0.20979
0.18243
0.15863
0.15863
0.15863
0.13794
0.18243
0.20979
0.18243
0.13794
0.13794
0.18243
0.13794
0.13794
0.15863
0.24126
0.18243
0.18243
0.08281
0.095232
0.08281
0.10952
0.12594
0.16656
0.12594
0.10952
0.10952
0.14484
0.10952
0.10952
0.10952
0.10952
0.14484
0.12594
0.08281
0.08281
0.10952
0.08281
0.12594
0.12594
0.095232
0.08281
0.12594
0.10952
0.12594
0.095232
0.095232
0.12594
0.10952
0.08281
0.08281
0.095232
0.08281
0.095232
0.095232
0.095232
0.08281
0.072009
0.095232
0.072009
0.08281
0.12594
0.12594
0.072009
0.072009
0.072009
0.072009
0.072009
0.072009
0.072009
0.08281
0.072009
0.08281
0.10952
0.072009
0.072009
0.095232
0.08281
0.095232
0.08281
0.08281
0.13335
0.11596
0.17636
0.13335
0.17636
0.15335
0.17636
0.15335
0.15335
0.17636
0.10083
0.13335
0.13335
0.11596
0.10083
0.13335
0.15335
0.10083
0.11596
0.11596
0.11596
0.11596
0.11596
0.13335
0.13335
0.15335
0.11596
0.13335
0.15335
0.11596
0.11596
0.17636
0.20281
0.20281
0.17636
0.17636
0.17636
0.13335
0.17636
0.15335
0.23323
0.17636
0.15335
0.15335
0.15335
0.23323
0.11596
0.15335
0.23323
0.20281
0.15335
0.13335
0.13335
0.13335
0.13335
0.17636
0.17636
0.20281
0.17636
0.17636
0.13335
0.15335
0.15335
0.23722
0.23722
0.20628
0.23722
0.20628
0.20628
0.23722
0.23722
0.17937
0.23722
0.20628
0.20628
0.17937
0.17937
0.20628
0.17937
0.17937
0.20628
0.20628
0.23722
0.23722
0.20628
0.17937
0.2728
0.2728
0.2728
0.17937
0.2728
0.20628
0.17937
0.23722
0.20628
0.23722
0.17937
0.17937
0.17937
0.17937
0.23722
0.20628
0.17937
0.23722
0.36078
0.20628
0.23722
0.2728
0.2728
0.2728
0.20628
0.088824
0.13509
0.11747
0.088824
0.077238
0.10215
0.10215
0.088824
0.10215
0.11747
0.088824
0.088824
0.077238
0.10215
0.10215
0.088824
0.13509
0.13509
0.20545
0.15535
0.11747
0.11747
0.13509
0.17866
0.11747
0.17866
0.11747
0.11747
0.10215
0.088824
0.10215
0.13509
0.088824
0.11747
0.11747
0.10215
0.077238
0.077238
0.088824
0.11747
0.15535
0.15535
0.13509
0.13509
0.15535
0.10215
0.10215
0.11747
0.13509
0.11747
0.11747
0.10215
0.10215
0.11747
0.10215
0.11747
0.20545
0.17866
0.15535
0.15535
0.17866
0.13509
0.13509
0.17866
0.18594
0.21383
0.18594
0.21383
0.21383
0.18594
0.21383
0.18594
0.18594
0.21383
0.21383
0.18594
0.21383
0.24591
0.32521
0.21383
0.21383
0.24591
0.32521
0.21383
0.24591
0.28279
0.21383
0.21383
0.21383
0.18594
0.18594
0.18594
0.18594
0.18594
0.18594
0.32521
0.21383
0.18594
0.21383
0.18594
0.18594
0.21383
0.28279
0.16094
0.18508
0.18508
0.24477
0.18508
0.18508
0.28149
0.18508
0.18508
0.16094
0.18508
0.28149
0.21285
0.16094
0.18508
0.21285
0.18508
0.16094
0.21285
0.16094
0.18508
0.16094
0.16094
0.24477
0.18508
0.18508
0.21285
0.16094
0.16094
0.18508
0.21285
0.28149
0.18508
0.16094
0.24477
0.21285
0.16094
0.21285
0.21285
0.21285
0.24477
0.18508
0.16094
0.16094
0.16094
0.16094
0.21285
0.21285
0.16094
0.18508
0.16094
0.18508
0.16094
0.24345
0.27997
0.24345
0.18408
0.24345
0.24345
0.27997
0.24345
0.2117
0.24345
0.18408
0.24345
0.24345
0.24345
0.32196
0.24345
0.32196
0.24345
0.2117
0.2117
0.24345
0.27997
0.24345
0.32196
0.18408
0.2117
0.18408
0.2117
0.24345
0.24345
0.2117
0.24345
0.32196
0.2117
0.2117
0.32196
0.24345
0.27997
0.32196
0.24345
0.24345
0.18408
0.18408
0.2117
0.24345
0.24345
0.24345
0.18408
0.16007
0.18408
0.2117
0.2117
0.18408
0.16007
0.18408
0.18408
0.16007
0.24345
0.18408
0.16007
0.18408
0.27997
0.16007
0.27997
0.2109
0.2109
0.24254
0.2109
0.2109
0.2109
0.2109
0.2109
0.24254
0.2109
0.2109
0.2109
0.24254
0.2109
0.2109
0.27892
0.2109
0.2109
0.24254
0.2109
0.24254
0.2109
0.2109
0.24254
0.2109
0.2109
0.2109
0.2109
0.2109
0.24254
0.2109
0.2109
0.24254
0.2109
0.1686
0.1686
0.1686
0.1686
0.1686
0.1686
0.1686
0.1686
0.1686
0.1686
0.19389
0.1686
0.1686
0.1686
0.1686
0.22298
0.1686
0.1686
0.1686
0.1686
0.29489
0.22298
0.1686
0.1686
0.25642
0.19389
0.19389
0.19389
0.25642
0.19389
0.1686
0.1686
0.1686
0.1686
0.1686
0.1686
0.19389
0.1686
0.22298
0.19389
0.22298
0.1686
0.1686
0.1686
0.1686
0.22298
0.19389
0.19389
0.19389
0.1686
0.22298
0.19389
0.19389
0.33302
0.33302
0.28959
0.25181
0.28959
0.33302
0.21897
0.25181
0.21897
0.19041
0.33302
0.21897
0.33302
0.28959
0.25181
0.25181
0.21897
0.21897
0.28959
0.21897
0.21897
0.16557
0.16557
0.16557
0.16557
0.19041
0.19041
0.25181
0.25181
0.19041
0.25181
0.21897
0.21897
0.25181
0.21897
0.21897
0.19041
0.16557
0.19041
0.25181
0.19041
0.19041
0.16557
0.16557
0.19041
0.16557
0.19041
0.21897
0.16557
0.19041
0.25181
0.21897
0.33302
0.19041
0.21897
0.19041
0.21897
0.16557
0.16557
0.19041
0.19041
0.21897
0.23353
0.20307
0.20307
0.23353
0.23353
0.20307
0.20307
0.26856
0.26856
0.20307
0.20307
0.23353
0.26856
0.17659
0.23353
0.26856
0.17659
0.15355
0.17659
0.15355
0.13352
0.15355
0.17659
0.20307
0.20307
0.15355
0.13352
0.23353
0.17659
0.17659
0.15355
0.26856
0.20307
0.15355
0.23353
0.17659
0.26856
0.17659
0.13352
0.13352
0.17659
0.20307
0.17659
0.20307
0.13352
0.13352
0.17659
0.15355
0.17659
0.17659
0.15355
0.13352
0.20307
0.15355
0.17659
0.15355
0.17659
0.15355
0.20722
0.15669
0.13625
0.18019
0.15669
0.15669
0.13625
0.18019
0.20722
0.15669
0.11848
0.11848
0.11848
0.13625
0.11848
0.15669
0.20722
0.15669
0.15669
0.18019
0.20722
0.20722
0.15669
0.15669
0.20722
0.20722
0.15669
0.15669
0.20722
0.2383
0.20722
0.20722
0.20722
0.15669
0.20722
0.18019
0.13625
0.18019
0.20722
0.18019
0.2383
0.27405
0.27405
0.2383
0.18019
0.20722
0.18019
0.20722
0.20722
0.13625
0.15669
0.20722
0.2383
0.13625
0.13625
0.15669
0.18019
0.20722
0.18019
0.15669
0.18019
0.18019
0.15669
0.11848