# vtk DataFile Version 3.0
vtk output
ASCII
DATASET POLYDATA
POINTS 77446 float
-18.104 -196.46 203.68
-18.104 -196.46 203.68
-18.132 -196.13 203.31
-18.104 -195.98 203.1
-18.104 -195.98 203.1
-18.094 -195.93 203.03
-18.064 -195.72 202.73
-18.053 -195.57 202.54
-18.117 -194.92 201.37
-18.117 -194.9 201.3
-18.119 -194.89 201.27
-18.13 -194.75 200.99
-18.184 -194.32 200.3
-18.101 -193.68 199.45
-18.051 -193.5 199.18
-18.05 -193.5 199.17
-17.943 -193.09 198.51
-17.938 -193.07 198.47
-17.909 -192.92 198.23
-17.851 -192.73 197.83
-17.705 -191.77 196.07
-17.708 -191.11 194.87
-17.71 -190.85 194.41
-17.71 -190.84 194.38
-17.704 -190.73 194.14
-17.678 -190.53 193.71
-17.652 -190.3 193.19
-17.694 -190.09 192.72
-17.702 -190.03 192.5
-17.703 -189.81 191.78
-17.672 -189.69 191.18
-17.633 -189.57 190.45
-17.59 -189.26 189.43
-17.581 -188.91 188.56
-17.574 -188.65 187.91
-17.569 -188.49 187.44
-17.53 -188.1 186.4
-17.516 -188.03 186.17
-17.476 -187.82 185.25
-17.472 -187.78 185.12
-17.498 -187.69 184.8
-17.531 -187.57 184.39
-17.597 -187.38 183.83
-17.624 -187.23 183.2
-17.613 -187.22 183.09
-17.579 -187.2 182.84
-17.564 -187.2 182.74
-17.516 -187.22 182.35
-17.496 -187.22 182.16
-17.464 -187.22 181.93
-17.449 -187.22 181.85
-17.423 -187.21 181.73
-17.395 -187.2 181.61
-17.283 -186.96 180.03
-17.284 -186.94 179.88
-17.284 -186.94 179.87
-17.312 -186.79 178.82
-17.312 -186.72 178.13
-17.291 -186.68 177.91
-17.279 -186.64 177.76
-17.222 -186.42 176.87
-17.209 -186.36 176.61
-17.216 -186.27 176.3
-17.243 -186.12 175.21
-17.242 -186.12 175.19
-17.233 -186.11 175.11
-17.233 -186.11 175.11
-17.213 -185.97 174.36
-16.964 -185.36 172.92
-16.877 -185.23 172.64
-16.79 -185.11 172.36
-16.766 -185.03 172.18
-16.755 -184.99 172.05
-16.721 -184.84 171.58
-16.709 -184.8 171.48
-16.66 -184.57 170.77
-16.663 -184.47 170.43
-16.663 -184.1 169.16
-16.718 -184.07 168.81
-16.692 -184.02 168.65
-16.457 -183.53 167.08
-16.409 -183.46 166.91
-16.347 -183.36 166.68
-16.257 -183.19 166.3
-16.183 -183.05 165.98
-15.956 -182.32 163.59
-15.941 -182.26 163.38
-15.867 -182.17 162.97
-15.739 -181.99 161.9
-15.732 -181.9 161.57
-15.381 -181.2 159.78
-15.266 -181.16 159.2
-15.144 -180.99 158.59
-15.126 -180.97 158.5
-14.931 -180.69 157.2
-14.921 -180.68 157.12
-14.863 -180.61 156.78
-14.709 -180.33 155.76
-14.687 -180.3 155.63
-14.622 -180.2 155.35
-14.6 -180.17 155.23
-14.466 -179.84 154.22
-14.426 -179.72 153.95
-14.422 -179.7 153.93
-14.405 -179.68 153.89
-14.35 -179.64 153.74
-14.319 -179.59 153.61
-14.269 -179.52 153.41
-14.177 -179.34 152.98
-14.177 -179.34 152.98
-14.153 -179.29 152.85
-14.024 -179.06 152.12
-13.998 -179.03 151.96
-13.991 -179.02 151.93
-13.951 -179 151.78
-13.655 -178.67 150.21
-13.605 -178.61 149.72
-13.523 -178.49 148.98
-13.487 -178.47 148.55
-13.479 -178.46 148.41
-13.467 -178.46 148.26
-13.422 -178.51 147.85
-13.36 -178.65 147.18
-13.378 -178.73 146.58
-13.378 -178.73 146.58
-13.398 -178.67 146.22
-13.41 -178.51 145.32
-13.413 -178.47 145.12
-13.423 -178.43 144.88
-13.408 -178.32 144.48
-13.401 -178.29 144.39
-13.332 -178.15 143.66
-13.311 -178.11 143.41
-13.225 -177.97 142.24
-13.215 -177.97 142.08
-13.18 -177.94 141.57
-13.124 -177.88 140.92
-13.093 -177.88 140.66
-13.042 -177.9 140.26
-12.967 -177.88 139.9
-12.962 -177.87 139.88
-12.869 -177.84 139.57
-12.824 -177.82 139.39
-12.732 -177.83 139.13
-12.56 -177.8 138.78
-12.381 -177.67 138.23
-12.21 -177.53 137.84
-11.474 -177.01 136.38
-11.44 -176.97 136.27
-11.368 -176.91 136.15
-11.336 -176.88 136.08
-10.882 -176.65 135.34
-10.44 -176.56 134.74
-9.3568 -176.46 133.53
-9.068 -176.45 133.2
-8.7541 -176.5 132.81
-8.6068 -176.46 132.61
-8.5984 -176.46 132.6
-8.2295 -176.35 132.14
-8.2209 -176.35 132.13
-8.1093 -176.33 131.98
-8.0635 -176.32 131.92
-8.0628 -176.32 131.92
-7.7599 -176.27 131.41
-7.7371 -176.27 131.37
-7.7365 -176.27 131.37
-7.6629 -176.25 131.26
-7.3411 -176.19 130.73
-7.2657 -176.19 130.58
-6.8288 -176.14 129.92
-6.5418 -176.1 129.5
-6.1702 -176.04 128.91
-6.1238 -176.04 128.86
-6.1155 -176.04 128.85
-5.7039 -175.97 128.33
-5.3253 -175.89 127.92
-5.1687 -175.91 127.76
-4.8209 -175.93 127.34
-4.5994 -175.95 127.02
-4.5322 -175.96 126.93
-4.263 -175.98 126.59
-4.058 -176 126.34
-4.0496 -176 126.33
-3.7632 -176.04 126
-3.6771 -176.04 125.91
-3.6185 -176.05 125.86
-3.44 -176.09 125.7
-3.1349 -176.17 125.46
-2.9724 -176.21 125.33
-2.7097 -176.27 125.16
-2.6495 -176.28 125.12
-2.5775 -176.29 125.08
-2.5772 -176.29 125.08
-2.5407 -176.3 125.06
-2.1512 -176.35 124.86
-1.9383 -176.37 124.76
-1.8251 -176.4 124.7
-1.7873 -176.41 124.68
-1.57 -176.46 124.51
-1.3884 -176.51 124.37
-0.66308 -176.7 123.61
-0.6431 -176.7 123.59
-0.56118 -176.71 123.53
-0.1112 -176.69 123.06
-0.10927 -176.69 123.06
0.41674 -176.76 122.55
0.58606 -176.77 122.42
0.91619 -176.79 122.14
1.6626 -176.87 121.4
1.7758 -176.9 121.29
1.9595 -176.96 121.11
2.4156 -177.08 120.71
2.98 -177.29 120.13
3.0205 -177.29 120.1
3.2607 -177.33 119.93
3.4517 -177.35 119.8
3.9233 -177.38 119.42
4.2613 -177.45 119.1
4.5595 -177.54 118.8
4.617 -177.56 118.74
4.9424 -177.62 118.32
5.051 -177.64 118.17
5.1861 -177.68 117.97
5.2201 -177.68 117.93
5.2216 -177.68 117.92
5.4391 -177.73 117.73
5.5059 -177.74 117.65
5.6777 -177.78 117.44
5.6955 -177.78 117.42
5.867 -177.83 117.27
5.9296 -177.85 117.18
5.9592 -177.86 117.15
6.2406 -177.9 116.85
6.4006 -177.96 116.7
6.6505 -178.01 116.53
6.8644 -178.05 116.37
7.231 -178.09 116.06
7.6798 -178.16 115.65
8.2815 -178.27 115.12
8.3732 -178.29 115.08
8.795 -178.4 114.72
8.9273 -178.44 114.61
9.0082 -178.48 114.5
9.2998 -178.52 114.07
9.4188 -178.54 113.89
9.7289 -178.58 113.62
9.7617 -178.58 113.58
9.8447 -178.59 113.51
9.9646 -178.61 113.41
10.36 -178.7 113.08
10.432 -178.73 112.96
10.463 -178.73 112.93
11.016 -178.84 112.53
11.228 -178.86 112.34
11.599 -178.97 111.93
11.616 -178.97 111.92
11.935 -179.05 111.68
12.22 -179.12 111.49
12.27 -179.13 111.46
12.765 -179.24 111.21
13.168 -179.34 111.01
13.226 -179.35 110.99
13.547 -179.44 110.83
13.897 -179.55 110.66
14.08 -179.6 110.57
14.522 -179.84 110.36
14.594 -179.86 110.32
15.145 -180.02 110.16
15.366 -180.08 110.07
15.623 -180.14 109.98
16.121 -180.29 109.8
16.269 -180.34 109.76
16.665 -180.48 109.63
16.898 -180.55 109.52
16.914 -180.55 109.51
17.295 -180.62 109.31
17.498 -180.67 109.21
17.7 -180.73 109.14
17.726 -180.73 109.13
18.353 -180.96 108.81
18.651 -181.06 108.68
18.733 -181.09 108.64
20.073 -181.59 108.26
20.096 -181.6 108.26
20.096 -181.6 108.26
20.339 -181.71 108.23
21.202 -182.09 108.05
21.219 -182.1 108.05
21.847 -182.28 107.82
22.266 -182.43 107.62
22.473 -182.49 107.56
22.593 -182.54 107.53
22.665 -182.57 107.5
22.698 -182.58 107.49
22.704 -182.59 107.49
23.701 -183.08 107
23.776 -183.12 106.96
24.407 -183.44 106.65
24.448 -183.46 106.63
24.691 -183.51 106.52
24.745 -183.52 106.5
24.85 -183.53 106.46
25.08 -183.58 106.37
25.901 -183.79 106.11
26.144 -183.87 105.98
26.289 -183.88 105.9
26.95 -183.94 105.55
27.056 -183.96 105.5
27.519 -184.03 105.31
28.169 -184.13 105.02
28.2 -184.13 105.01
28.608 -184.2 104.74
29.105 -184.18 104.31
29.145 -184.17 104.28
29.396 -184.09 104.08
29.461 -184.07 104.03
29.637 -183.96 103.91
29.737 -183.91 103.85
29.738 -183.91 103.85
29.933 -183.79 103.7
29.934 -183.79 103.7
29.997 -183.75 103.66
30.314 -183.54 103.4
30.521 -183.43 103.26
30.603 -183.39 103.22
30.758 -183.35 103.17
31.122 -183.2 102.95
31.251 -183.12 102.85
31.63 -182.98 102.62
31.892 -182.88 102.44
32.046 -182.84 102.36
32.546 -182.68 101.95
32.638 -182.65 101.87
32.784 -182.61 101.77
32.818 -182.6 101.75
32.833 -182.6 101.74
33.062 -182.51 101.56
33.655 -182.26 101.1
33.732 -182.23 101.03
33.816 -182.22 100.98
33.871 -182.21 100.93
34.033 -182.19 100.83
34.218 -182.17 100.71
34.38 -182.13 100.59
34.613 -182.08 100.41
35.049 -181.97 100.1
35.107 -181.95 100.06
35.408 -181.85 99.84
35.606 -181.8 99.713
35.726 -181.74 99.624
36.025 -181.59 99.407
36.148 -181.51 99.3
36.29 -181.41 99.183
36.541 -181.08 98.864
36.62 -180.98 98.716
36.668 -180.92 98.62
36.669 -180.92 98.617
36.731 -180.83 98.481
36.961 -180.64 98.115
37.106 -180.53 97.909
37.258 -180.41 97.697
37.616 -180.29 97.298
37.66 -180.28 97.237
37.666 -180.28 97.225
37.719 -180.26 97.148
37.892 -180.21 96.875
38.064 -180.01 96.572
38.118 -179.94 96.48
38.119 -179.94 96.479
38.175 -179.88 96.393
38.428 -179.71 96.101
38.562 -179.65 95.979
38.722 -179.56 95.776
38.85 -179.48 95.597
38.878 -179.46 95.544
38.88 -179.46 95.541
38.956 -179.39 95.399
39.373 -179.09 94.729
39.443 -179.04 94.626
39.464 -178.99 94.515
39.67 -178.75 94.026
39.854 -178.64 93.682
40.063 -178.51 93.233
40.157 -178.47 93.058
40.158 -178.47 93.056
40.346 -178.36 92.667
40.434 -178.32 92.492
40.611 -178.2 92.043
40.667 -178.17 91.946
40.778 -178.12 91.777
40.779 -178.12 91.776
40.847 -178.1 91.684
40.929 -178.07 91.575
40.97 -178.06 91.523
41.182 -178 91.228
41.194 -178 91.203
41.649 -177.79 90.465
41.66 -177.78 90.449
41.735 -177.74 90.349
41.751 -177.73 90.327
41.865 -177.67 90.191
41.874 -177.66 90.18
41.926 -177.63 90.116
42.118 -177.5 89.821
42.119 -177.5 89.819
42.159 -177.47 89.745
42.16 -177.47 89.744
42.215 -177.42 89.674
42.34 -177.34 89.444
42.373 -177.31 89.386
42.413 -177.28 89.325
42.451 -177.26 89.271
42.451 -177.26 89.27
42.567 -177.22 89.125
42.569 -177.22 89.123
42.677 -177.16 88.99
42.737 -177.14 88.924
42.96 -177.01 88.686
42.962 -177.01 88.684
43.26 -176.85 88.377
43.446 -176.74 88.131
43.629 -176.69 87.831
43.849 -176.62 87.428
43.85 -176.62 87.427
43.85 -176.62 87.427
43.965 -176.61 87.279
44.018 -176.59 87.212
44.249 -176.51 86.963
44.367 -176.46 86.825
44.416 -176.43 86.765
44.416 -176.43 86.765
44.847 -176.23 86.249
45.211 -176.09 85.842
45.252 -176.07 85.776
45.28 -176.06 85.726
45.379 -176.03 85.565
45.672 -175.75 85.037
45.831 -175.59 84.71
45.832 -175.59 84.706
45.84 -175.57 84.676
45.952 -175.45 84.251
45.973 -175.4 84.158
46.012 -175.33 84.023
46.088 -175.22 83.731
46.225 -175.07 83.402
46.362 -174.95 83.173
46.419 -174.88 83.059
46.522 -174.72 82.769
46.576 -174.55 82.531
[...]
POINT_DATA 77446
SCALARS radius double 
LOOKUP_TABLE default 
7.6384
7.6388
7.6504
7.6285
7.6283
7.6231
7.607
7.5924
7.5003
7.5012
7.5022
7.513
7.5814
7.6211
7.6307
7.6305
7.6323
7.6337
7.6448
7.6671
7.689
7.9393
8.0919
8.097
8.1357
8.1451
8.1773
8.1794
8.1718
8.1617
8.1421
8.165
8.1576
8.1878
8.1449
8.1342
8.1683
8.176
8.2061
8.2156
8.2291
8.2606
8.3216
8.3701
8.3668
8.3492
8.3407
8.3125
8.3033
8.2893
8.2832
8.2726
8.2636
8.1046
8.0968
8.0967
8.0968
8.1455
8.153
8.1511
8.1747
8.1964
8.2165
8.2722
8.2747
8.2745
8.2745
8.2668
8.1501
8.1462
8.1403
8.1198
8.0989
8.0316
8.0139
7.872
7.8094
7.7021
7.6298
7.5719
7.1956
7.1679
7.129
7.0779
7.0505
7.091
7.122
7.1787
7.3822
7.4325
7.8208
7.8316
7.7706
7.7618
7.7045
7.7058
7.7183
7.771
7.788
7.8131
7.8267
8.0183
8.0575
8.0605
8.0613
8.0448
8.0306
8.0076
7.9717
7.9716
7.9648
7.9321
7.9252
7.9219
7.9065
7.8401
7.8353
7.8732
7.8885
7.8988
7.9042
7.9043
7.9183
7.9308
7.9297
7.8491
7.6793
7.6554
7.6303
7.5766
7.5672
7.4877
7.4684
7.4763
7.482
7.5017
7.5408
7.5462
7.5623
7.555
7.5538
7.5414
7.54
7.5207
7.4747
7.3397
7.257
7.0595
7.0595
7.0491
7.0481
6.9544
6.8388
6.7031
6.7194
6.7155
6.6618
6.6592
6.5449
6.5425
6.5095
6.4963
6.4961
6.3676
6.3579
6.3577
6.3337
6.2503
6.2244
6.15
6.1412
6.1643
6.1709
6.1726
6.2568
6.3634
6.3055
6.1757
6.108
6.0898
6.032
6.005
6.0038
5.9777
5.9712
5.9662
5.9339
5.8806
5.8597
5.8349
5.8305
5.825
5.825
5.8233
5.8084
5.8059
5.7993
5.7956
5.7792
5.7668
5.7566
5.7575
5.7602
5.7069
5.7065
5.5233
5.4816
5.4182
5.3703
5.3609
5.3446
5.3418
5.3972
5.4
5.4143
5.429
5.4547
5.4566
5.4744
5.4778
5.4725
5.4783
5.4886
5.4924
5.4926
5.5158
5.5222
5.5385
5.5405
5.5488
5.5482
5.5442
5.5225
5.4935
5.4423
5.409
5.3305
5.2743
5.2927
5.2914
5.3246
5.3459
5.3681
5.3957
5.414
5.4615
5.4675
5.4812
5.4943
5.5525
5.5743
5.5753
5.5371
5.5047
5.4318
5.429
5.3748
5.3386
5.3338
5.297
5.2986
5.2988
5.3148
5.3465
5.3724
5.3788
5.3727
5.3515
5.3389
5.3342
5.3442
5.3544
5.3934
5.4244
5.4259
5.4593
5.4856
5.5182
5.522
5.4437
5.4309
5.4298
5.5393
5.5426
5.5426
5.5632
5.6986
5.7005
5.6336
5.6171
5.6232
5.6229
5.6179
5.6157
5.615
5.6067
5.6107
5.7238
5.7339
5.7399
5.741
5.7442
5.7518
5.7724
5.7768
5.744
5.5701
5.5496
5.4822
5.4594
5.46
5.4066
5.251
5.2289
5.0956
5.0598
4.9322
4.8664
4.8653
4.729
4.7285
4.6856
4.4799
4.3716
4.334
4.2763
4.1237
4.067
3.9372
3.8605
3.8252
3.7324
3.7229
3.7096
3.7086
3.7078
3.6907
3.7285
3.7346
3.7305
3.7262
3.7166
3.7099
3.7087
3.7117
3.7579
3.7664
3.8208
3.8624
3.8836
3.9511
3.9783
4.0203
4.0397
4.0289
4.0239
4.0238
4.0229
3.9949
3.999
4.0096
4.0095
4.008
4.0066
4.0006
3.9834
3.8806
3.8511
3.851
3.827
3.7322
3.6895
3.6294
3.5799
3.5657
3.5651
3.5282
3.455
3.4557
3.4502
3.4672
3.3529
3.2589
3.2313
3.231
3.1872
3.1741
3.1506
3.1385
3.1185
3.1184
3.1072
3.0976
3.0954
3.0855
3.0832
3.0036
3.0037
3.0046
3.0048
2.998
2.997
2.9904
2.956
2.9558
2.949
2.9488
2.9436
2.9184
2.9142
2.9079
2.8966
2.8965
2.8628
2.8622
2.8404
2.8283
2.8071
2.807
2.806
2.8209
2.8324
2.8912
2.8913
2.8913
2.8946
2.8923
2.8918
2.8974
2.9007
2.9007
2.9641
3.0395
3.0446
3.0468
3.0518
3.1313
3.2221
3.2224
3.2231
3.2386
3.2397
3.2369
3.2451
3.2415
3.2294
3.2148
3.1713
3.1199
3.0915
3.0517
3.0043
2.9308
2.9052
2.8935
2.8731
2.818
2.7309
2.6581
2.6575
2.6247
2.6244
2.5358
2.5289
2.5162
2.513
2.5127
2.514
2.4549
2.4434
2.388
2.3338
2.3336
2.2307
2.1717
2.1712
2.1232
2.123
2.0654
2.0647
2.0467
2.0438
2.0178
2.0016
2.0014
1.9762
1.9736
1.9632
1.961
1.9179
1.913
1.9089
1.8894
1.871
1.8625
1.7598
1.7114
1.7077
1.7077
1.6962
1.7345
1.7952
1.7974
1.8244
1.8325
1.848
1.8838
1.9199
1.9308
1.9192
1.9167
1.9154
1.8844
1.884
1.874
1.8757
1.8183
1.8003
1.742
1.6144
1.5993
1.597
1.5199
1.4603
1.4024
1.3997
1.3523
1.3521
1.2935
1.2445
1.2443
1.2209
1.2206
1.2037
1.1968
1.1253
1.1251
1.1053
1.0987
1.0491
1.0442
1.0298
0.99116
0.98921
0.979
0.97879
0.97418
0.93218
0.91565
0.86778
0.85227
0.84242
0.83477
0.8352
0.83618
0.83456
0.83613
0.83329
0.85368
0.85746
0.87727
0.92258
0.95082
1.064
1.084
1.1074
1.1078
1.1057
1.1052
1.0996
1.1039
1.0981
1.0799
1.0656
1.0577
1.0362
0.98797
0.92033
0.85828
0.85188
0.85186
0.8465
0.84643
0.85307
0.86637
0.87114
0.86832
0.86646
0.86612
0.81884
0.81324
0.81256
0.78652
0.7725
0.74328
0.73962
0.72645
0.73666
0.7658
0.79629
0.79687
0.85825
0.86546
0.94722
0.95622
0.95901
0.95733
0.95648
0.94587
0.92106
0.89966
0.89582
0.89568
0.89102
0.8407
0.83979
0.83573
0.82784
0.83086
0.83055
0.81935
0.83224
0.86834
0.8687
0.9101
0.91269
0.91276
0.9218
0.93094
0.95152
0.9533
0.96186
0.95837
0.95901
0.96064
0.94784
0.93722
0.93594
0.93272
0.93049
0.93205
0.93475
0.92323
0.91785
0.91555
0.892
0.88428
0.87566
0.86802
0.85785
0.84226
0.83787
0.83286
0.80659
0.83728
0.84106
0.84108
0.83306
0.82925
0.77964
0.77775
0.68837
0.68765
0.64619
0.62787
0.62885
0.63229
0.6349
0.63028
0.63077
0.63078
0.62639
0.64825
0.66695
0.67862
0.69975
0.71326
0.72842
0.72832
0.73695
0.76609
0.76664
0.7656
0.79386
0.7995
0.82552
0.82725
0.82971
0.82977
0.83481
0.84593
0.85263
0.86272
0.87219
0.87587
0.88116
0.88389
0.88989
0.88988
0.8779
0.87619
0.82705
0.82737
0.82494
0.80899
0.79751
0.78848
0.76424
0.76219
0.76
0.75818
0.75504
0.77117
0.7833
0.78415
0.81888
0.82223
0.85917
0.87555
0.87653
0.87653
0.88305
0.88323
0.88185
0.8641
0.85125
0.8384
0.79814
0.79798
0.74648
0.72333
0.68664
0.68604
0.66086
0.62487
0.55263
0.54935
0.54513
0.53828
0.5427
0.60219
0.61444
0.61565
2.5162
2.5127
2.4979
2.4675
2.2232
2.2078
2.105
1.8336
1.7865
1.7319
1.6553
1.642
1.6294
1.6293
1.5232
1.5228
1.4543
1.4537
1.4233
1.4209
1.379
1.3735
1.2474
1.2133
1.178
1.137
1.1367
1.098
1.0761
1.0742
1.0528
1.054
1.0459
1.0538
1.054
1.0526
1.0682
1.0942
1.095
1.1589
1.1595
1.1765
1.1773
1.2072
1.281
1.2835
1.3365
1.3582
1.3652
1.38
1.402
1.4097
1.4506
1.4919
1.4921
1.4964
1.5385
1.578
1.5837
1.5839
1.5889
1.5797
1.5803
1.5698
1.5602
1.5493
1.5482
1.5472
1.52
1.5141
1.4745
1.4441
1.435
1.3529
1.3033
1.2965
1.2705
1.2209
1.2072
1.1906
1.1874
1.0894
1.0738
1.0747
1.1077
1.116
1.1313
1.1331
1.1495
1.1536
1.1536
1.1907
1.1964
1.2366
1.2484
1.268
1.2811
1.2881
1.2936
1.2917
1.2804
1.2888
1.2903
1.2881
1.288
1.309
1.3076
1.3193
1.32
1.328
1.346
1.3462
1.3437
1.3431
1.3347
1.3177
1.315
1.3117
1.2956
1.2642
1.2208
1.1725
1.1611
1.1127
1.0983
1.0581
1.0478
1.0132
0.9972
0.94708
0.94648
0.9324
0.90092
0.90064
0.9182
0.93544
0.93651
0.93696
0.94611
0.95349
0.96077
0.97761
0.99074
0.99259
0.99506
0.99507
1.0106
1.0669
1.0848
1.1764
1.2949
1.3502
1.4309
1.4363
1.4361
1.4342
1.4307
1.4155
1.4229
1.423
1.4221
1.4213
1.4134
1.4095
1.4226
1.4247
1.4221
1.4146
1.4109
1.4094
1.3982
1.381
1.3833
1.3808
1.3807
1.3571
1.3569
1.3566
1.3565
1.361
1.3768
1.3779
1.3797
1.3796
1.3794
1.381
1.3833
1.4247
1.4691
1.4717
1.5104
1.513
1.5116
1.4668
1.4484
1.4315
1.4046
1.3986
1.3815
1.3769
1.3769
1.3852
1.3883
1.3881
1.388
1.3877
1.3768
1.3414
1.3399
1.3301
1.3296
1.3489
1.349
1.3536
1.3535
1.3437
1.3528
1.372
1.3939
1.3955
1.3941
1.3922
1.391
1.3846
1.3825
1.3824
1.3856
1.3985
1.4023
1.3971
1.3714
1.3127
1.2928
1.2821
1.2819
1.2649
1.2689
1.2826
1.3196
1.3217
1.3455
1.347
1.3401
1.3284
1.3281
1.3118
1.2989
1.2927
1.2635
1.2681
1.2668
1.2623
1.2622
1.2607
1.2552
1.2552
1.2552
1.2528
1.2529
1.2753
1.2821
1.2934
1.3845
1.3981
1.4194
1.4235
1.439
3.152
3.1534
3.1526
3.1428
3.1427
3.1242
3.114
3.0513
3.0269
3.0104
2.9567
2.929
2.9234
2.8577
2.841
2.8409
2.7672
2.7666
2.7273
2.6699
2.6692
2.6228
2.62
2.6059
2.4938
2.4526
2.2687
1.9771
1.9706
1.9706
1.9474
1.9472
1.9396
1.9395
1.9006
1.8835
1.8835
1.8231
1.787
1.7867
1.7521
1.752
1.7369
1.7349
1.7197
1.6865
1.6801
1.68
1.6252
1.6203
1.5895
1.5801
1.5794
1.5824
1.5881
1.6039
1.6238
1.6471
1.6472
1.6672
1.6525
1.6193
1.6111
1.5911
1.5797
1.5547
1.5277
1.5125
1.4979
1.4918
1.4821
1.4792
1.4773
1.4764
1.4874
1.4948
1.5051
1.5071
1.5348
1.5433
1.559
1.5717
1.572
1.5718
1.5744
1.5731
1.569
1.5601
1.5493
1.5225
1.5125
1.4884
1.4013
1.3944
1.3514
1.35
1.3222
1.3142
1.3071
1.3078
1.332
1.3516
1.3614
1.3615
1.4049
1.4093
1.4094
1.4094
1.4174
1.4251
1.423
1.4222
1.4175
1.4102
1.4063
1.4006
1.3967
1.3931
1.3928
1.4
1.4173
1.4175
1.4277
1.4283
1.4094
1.3963
1.3821
1.382
1.3774
1.3638
1.3604
1.3479
1.3343
1.3231
1.3068
1.2974
1.2617
1.2616
1.2329
1.2323
1.2221
1.2167
1.2038
1.2019
1.1952
1.1924
1.199
1.2041
1.2107
1.2145
1.2148
1.2098
1.16
1.0748
1.0097
1.0039
0.99975
0.9287
0.85244
0.75589
0.80361
0.80641
0.80807
0.86282
0.97534
1.0493
1.0855
1.1148
1.1315
1.1435
1.1707
1.1712
1.19
1.1944
1.2461
1.2488
1.2663
1.2675
1.2655
1.2636
1.2521
1.2523
1.253
1.2556
1.2554
1.1988
1.1648
1.1629
1.1628
1.1392
1.1343
1.0983
1.0828
1.0827
1.0394
1.0172
0.97631
0.9892
1.0043
1.0252
1.0465
1.0641
1.0642
1.0642
1.0755
1.0793
1.0896
1.0908
1.0906
1.0901
1.085
1.07
1.0484
1.0355
1.027
1.023
1.0142
0.99672
0.99487
0.97095
0.96358
0.95827
0.9577
0.94535
0.9506
0.92782
0.89731
0.8915
0.89145
0.86467
0.86144
0.85405
0.84061
0.83738
0.82619
0.81027
0.81008
0.78308
0.76788
0.76474
0.76331
0.7492
0.74982
0.74983
0.77087
0.77427
0.78388
0.7834
0.78252
0.77942
0.7794
0.78084
0.7926
0.80476
0.84185
0.85165
0.8805
0.90277
0.90647
0.91334
0.92129
0.92155
0.92845
0.92367
0.91658
0.8952
0.89084
0.89082
0.87842
0.86246
0.85169
0.8516
0.83152
0.80414
0.80398
0.79539
0.77188
0.77658
0.77615
0.79009
0.79541
0.82981
0.85614
0.87424
0.8645
0.8687
0.852
0.85164
0.83527
0.83381
0.80636
5.7768
5.7697
5.7358
5.7308
5.6793
5.6756
5.5989
5.5852
5.5844
5.5701
5.5521
5.5144
5.491
5.4906
5.3358
5.2521
5.203
5.1828
5.1268
5.0408
5.0066
4.9445
4.8892
4.6919
4.5702
4.5314
4.4923
4.4806
4.2991
4.248
4.24
4.2289
4.2217
4.2212
4.158
4.1248
4.0361
4.0273
4.012
3.9731
3.9688
3.9652
3.9662
3.9653
3.9648
3.8961
3.892
3.8479
3.8165
3.8106
3.7989
3.7846
3.7343
3.7447
3.7479
3.7193
3.6987
3.6885
3.6681
3.6659
3.6113
3.5938
3.5852
3.5205
3.4965
3.498
3.4987
3.4952
3.4639
3.46
3.4551
3.4448
3.4096
3.3439
3.2521
3.2278
3.2017
3.1915
3.1706
3.1608
3.143
3.1428
3.1371
3.1281
3.1217
3.1115
3.1113
3.0601
3.0599
3.0509
3.0438
2.9817
2.9689
2.9165
2.8951
2.8945
2.8196
2.7736
2.7603
2.7335
2.6437
2.6429
2.6368
2.6209
2.5854
2.5658
2.5617
2.5606
2.553
2.5525
2.5533
2.5526
2.5643
2.5658
2.5665
2.5371
2.4863
2.4687
2.4533
2.449
2.4288
2.4271
2.3752
2.3659
2.3664
2.3627
2.3609
2.3601
2.3464
2.3454
2.2762
2.2604
2.1971
2.1841
2.153
2.142
2.1332
2.133
2.1198
2.1173
2.1178
2.1181
2.1138
2.1097
2.1095
2.0906
2.0896
2.0753
2.0389
2.0172
1.9798
1.9704
1.9573
1.9507
1.9318
1.9318
1.92
1.906
1.8746
1.8427
1.8343
1.823
1.8186
1.8428
1.8508
1.874
1.8762
1.8766
1.8655
1.855
1.8505
1.8149
1.8123
1.801
1.8009
1.7991
1.7905
1.787
1.7504
1.7431
1.7275
1.6874
1.684
1.6822
1.6546
1.6544
1.6446
1.6365
1.6329
1.6197
1.6191
1.6089
1.6094
1.6099
1.6312
1.6314
1.6573
1.6576
1.6614
1.6633
1.6625
1.6627
1.6627
1.6775
1.6853
1.7069
1.7219
1.7286
1.738
1.7386
1.7435
1.7527
1.7516
1.7424
1.698
1.6877
1.7444
1.7478
1.7694
1.7831
1.7812
1.7715
1.7714
1.7611
1.7815
1.7779
1.7779
1.7357
1.704
1.679
1.6695
1.5404
1.5188
1.3651
1.2484
1.1738
1.1004
1.0349
1.0076
1.0075
0.98506
1.0326
1.0596
1.1478
1.1709
1.1887
1.1949
1.298
1.3006
1.3027
1.323
1.3241
1.3217
1.3198
1.31
1.2955
1.2904
1.2844
1.2843
1.2594
1.2525
1.2427
1.2424
1.205
1.2041
1.1913
1.189
1.1888
1.1579
1.1519
1.1174
1.0859
1.0796
1.0796
1.0796
1.0802
1.09
1.0848
1.0831
1.0844
1.085
1.0973
1.0975
1.0976
1.0958
1.0921
1.1047
1.1002
1.1006
1.1
1.1025
1.1025
1.0982
1.1079
1.1138
1.1521
1.2643
1.2676
1.2676
1.2733
1.2801
1.2748
1.2633
1.2664
1.1534
1.0766
1.0591
1.0469
0.98248
5.4549
5.4536
5.3113
5.298
5.2979
5.2767
5.2766
5.2753
5.2379
5.2376
5.2307
5.2307
5.2147
5.2042
5.177
5.1757
5.1231
5.1193
5.0835
5.074
5.0018
4.8856
4.7743
4.761
4.6572
4.6568
4.5572
4.5558
4.4659
4.4652
4.4577
4.4576
4.4038
4.4034
4.3574
4.342
4.3198
4.2819
4.2291
4.146
4.1318
4.13
4.1223
4.0742
4.0697
4.0541
4.0404
4.0314
4.0183
4.0104
3.9474
3.9285
3.8966
3.8743
3.8742
3.8594
3.859
3.8394
3.811
3.8106
3.8037
3.7995
3.799
3.7265
3.7207
3.6853
3.6832
3.6969
3.6971
3.6633
3.659
3.5815
3.5343
3.5151
3.5114
3.5086
3.4986
3.4598
3.4561
3.4561
3.3536
3.3393
3.2858
3.2659
3.257
3.2409
3.2033
3.1825
3.1856
3.1977
3.1975
3.1904
3.1519
3.1471
3.128
3.0927
3.0655
3.027
2.992
2.9527
2.8733
2.8283
2.6646
2.5873
2.5784
2.5624
2.4879
2.4694
2.3612
2.3464
2.2757
2.2486
2.247
2.2322
2.2163
2.212
2.2036
2.1901
2.1922
2.206
2.2449
2.2659
2.2822
2.2973
2.3043
2.3102
2.3242
2.3656
2.4163
2.5026
2.5776
2.6144
2.6147
2.5958
2.5848
2.5723
2.564
2.5577
2.5223
2.5086
2.5062
2.4706
2.4316
2.2446
2.2042
2.1414
2.1337
2.1215
2.0949
2.0947
2.0789
2.0675
2.042
2.035
2.0335
2.0371
2.0591
2.0614
2.0713
2.0713
2.0723
2.0561
2.0411
2.0065
1.9865
1.9509
1.8536
1.789
1.7505
1.7377
1.7371
1.7231
1.723
1.6649
1.6637
1.6412
1.6405
1.6113
1.6112
1.6055
1.5772
1.5657
1.5656
1.5412
1.527
1.5075
1.5042
1.5042
1.4659
1.4628
1.4243
1.4192
1.3716
1.3652
1.3593
1.349
1.3337
1.3336
1.3335
1.3129
1.308
1.3007
1.293
1.2927
1.2971
1.2923
1.2843
1.2436
1.2333
1.2286
1.1509
1.1428
1.0807
1.0797
1.0188
1.0032
0.93528
0.83682
0.82023
0.8032
0.77012
0.76713
0.7356
0.70294
0.70023
0.69792
0.71557
0.71865
0.71926
0.77118
0.7784
0.79438
0.85753
0.89022
0.89691
0.89696
0.90143
0.9059
0.90604
0.91618
0.91641
0.91767
0.91345
0.90992
0.89032
0.88292
0.882
0.87143
0.8636
0.85545
0.88225
0.88967
0.89391
0.89227
0.89038
0.88568
0.85798
0.85171
0.84743
0.84077
0.83056
0.82262
0.81956
0.77812
0.75401
0.70087
0.64839
0.62552
0.60025
0.58784
0.58521
0.57565
0.54901
0.55164
0.55164
0.55147
0.58649
0.5992
0.60285
0.61457
0.63783
0.64139
0.7094
0.72347
0.73085
0.73778
0.73792
0.78641
0.80551
0.79873
7.5645
7.5374
7.5358
7.5154
7.4512
7.4113
7.3697
7.3675
7.3252
7.2834
7.2196
7.2003
7.1932
7.192
7.1948
7.2131
7.2144
7.2045
7.1565
7.1317
7.0918
6.9434
6.8859
6.8718
6.8092
6.695
6.6601
6.656
6.6366
6.5966
6.5913
6.5912
6.5115
6.4862
6.4593
6.4466
6.4285
6.4273
6.414
6.3772
6.3095
6.3039
6.2831
6.2711
6.2433
6.2664
6.2594
6.2469
6.2385
6.2239
6.2238
6.2146
6.1741
6.1535
6.1522
6.1504
6.154
6.1274
6.1185
6.1189
6.1177
6.1181
6.1262
6.1281
6.1297
6.1418
6.1285
6.1283
6.142
6.1459
6.1467
6.147
6.1531
6.1555
6.1387
6.1309
6.1304
6.0933
6.0032
5.9872
5.9319
5.9288
5.9256
5.8848
5.8537
5.8127
5.7902
5.8086
5.8128
5.8171
5.8054
5.8042
5.8024
5.7482
5.7355
5.7129
5.7016
5.7016
5.6784
5.6781
5.6775
5.6273
5.6096
5.6029
5.5849
5.5806
5.501
5.4933
5.4735
5.4359
5.4341
5.44
5.4287
5.2182
5.2164
5.1163
5.1134
5.0998
5.0993
5.117
5.1235
5.1255
5.126
5.1169
5.1116
5.0635
5.0537
5.0516
5.0287
4.9965
4.9761
4.9507
4.9404
4.9156
4.8743
4.7929
4.7362
4.733
4.6284
4.4376
4.4381
4.4468
4.4243
4.4628
4.512
4.5868
4.5876
4.578
4.5619
4.5587
4.5253
4.5165
4.5081
4.4996
4.4981
4.4928
4.4879
4.44
4.4393
4.3873
4.3853
4.3379
4.3086
4.2975
4.2973
4.2615
4.2462
4.1819
4.1734
4.1176
4.0932
4.0819
4.0809
4.0679
4.0658
4.0658
4.0629
4.0492
4.0441
4.0449
4.0384
4.0343
4.0333
4.0232
4.0128
3.991
3.9107
3.8918
3.8757
3.8272
3.8385
3.8429
3.8606
3.8615
3.8616
3.9065
3.951
3.9517
4.0214
4.0266
4.031
4.0924
4.0924
4.0909
4.0909
4.1037
4.1306
4.1234
4.1148
4.1117
4.1116
4.1505
4.1767
4.2174
4.2884
4.2927
4.3198
4.3674
4.3699
4.3724
4.3788
4.41
4.4136
4.4761
4.4882
4.4966
4.5057
4.527
4.5363
4.538
4.5444
4.5464
4.5482
4.5544
4.5546
4.5653
4.5762
4.555
4.527
4.4479
4.4349
4.4323
4.3187
4.3034
4.2881
4.2598
4.2827
4.2844
4.281
4.2835
4.1825
4.1837
4.2016
4.206
4.2861
4.2888
4.3275
4.3761
4.375
4.3409
4.2645
4.2283
4.2282
4.1907
4.1899
4.1592
4.0401
4.0303
3.9819
3.9419
3.9206
3.8852
3.8467
3.7802
3.7573
3.7433
3.7432
3.724
3.7051
3.705
3.6667
3.6809
3.6816
3.6242
3.6259
3.6108
3.5892
3.5818
3.5817
3.5729
3.5727
3.5413
3.5395
3.5028
3.4769
3.3703
3.3434
3.3403
3.3278
3.2665
3.193
3.1839
3.1652
3.1166
3.0185
2.9848
2.9845
2.9513
2.9509
2.8594
2.855
2.8548
2.7955
2.7953
2.7844
2.7839
2.7578
2.7279
2.6672
2.6336
2.6194
2.6065
2.598
2.5685
2.5693
2.6671
2.688
2.689
2.6333
2.6303
2.6068
2.6006
2.5925
2.5919
2.5808
2.5807
2.5752
2.5723
2.5674
2.5432
2.5287
2.5281
2.5058
2.5054
2.4999
2.4956
2.4599
2.4502
2.4512
2.4608
2.4742
2.502
2.5861
2.6
2.6163
2.6181
2.5365
2.5165
2.5164
2.3414
2.0766
1.9071
1.8433
1.8401
1.7547
1.7544
1.558
1.5524
1.5441
1.4755
1.4692
1.389
1.3828
1.3701
1.3188
1.2426
1.232
1.2199
1.2025
1.24
1.2869
1.2979
1.3941
1.4303
1.4511
1.4592
1.4628
1.4771
1.4789
1.4849
1.486
1.4906
1.4912
1.4913
1.4912
1.4911
1.4903
1.5046
1.517
1.5232
1.5226
1.5151
1.5007
1.4904
1.4902
1.4676
1.4364
1.4175
1.4116
1.3915
1.3682
1.3681
1.3557
1.3504
1.3509
1.351
1.3467
1.3467
1.3424
1.3422
1.3417
1.3313
1.3313
1.3283
1.3132
1.3149
1.316
1.3193
1.3202
1.3312
1.3348
1.3412
1.3458
1.3471
1.3627
1.3642
1.3892
1.4005
1.4292
1.4892
1.4893
1.5097
1.5879
1.6214
1.6448
1.6471
1.6045
1.3803
1.2663
1.1512
1.1196
0.99744
0.95269
0.92757
0.92774
0.93521
0.9458
1.0293
1.0297
1.0295
1.0133
1.013
1.0147
1.0148
1.0145
1.0109
1.0219
1.0821
1.117
1.1359
1.1565
1.1612
1.1664
1.1531
1.1563
1.1659
1.1667
1.1947
1.196
1.2477
1.2685
1.2892
1.3464
1.3495
1.3805
1.3971
1.4245
1.4442
1.467
1.4691
1.4737
1.4871
1.4514
1.4405
1.4404
1.4233
1.3918
1.3906
1.3799
1.3793
1.3541
1.2855
1.2794
1.2754
1.2752
1.282
1.2846
1.2968
1.3005
1.3075
1.3082
1.3081
1.3167
1.3172
1.3201
1.3192
1.3174
1.2977
1.2819
1.2319
1.2006
1.1404
1.1345
1.1153
1.1103
1.1092
1.1084
1.1013
1.1192
1.1202
1.1202
1.1204
1.1237
1.1237
1.1213
1.0882
1.053
1.0481
1.0417
1.0231
1.023
1.0117
1.0088
0.99067
0.98487
0.97955
0.954
0.95857
0.95899
0.95354
0.94994
0.9366
0.93265
0.91801
0.88504
0.86873
0.85128
0.86139
0.89909
0.9322
0.93764
1.0507
1.0734
1.0949
1.1346
1.1445
1.1491
1.1503
1.1503
1.1797
1.1834
1.2055
1.2102
1.2056
1.1881
1.1823
1.1749
1.1742
1.1636
1.1585
1.1415
1.0996
1.0857
1.083
1.0657
1.0321
1.0208
1.006
1.0005
1.0502
1.1399
1.1512
1.1628
1.1633
1.1479
1.1351
1.1295
1.1298
1.1295
1.1258
1.1217
1.1143
1.1118
1.0811
1.08
1.0722
1.046
1.0264
1.0107
0.9967
0.99372
0.96176
0.95732
0.95164
0.9458
0.9215
0.92131
0.88329
0.88314
0.81161
0.80182
0.78971
0.77707
0.76581
0.75915
0.74905
0.76323
0.75471
0.75535
0.75813
0.782
0.78341
0.78953
0.82643
0.83952
0.89077
0.93065
0.93115
0.96295
0.96403
0.96415
0.96253
0.95247
0.94579
0.94051
0.91759
0.85765
0.85716
0.83109
0.81117
0.80838
0.80224
0.80214
0.7679
0.76646
0.75051
0.65866
0.66719
0.68165
0.6894
0.6797
0.6619
0.65452
0.63345
0.63115
0.62339
0.62936
0.68066
0.68959
0.71314
0.7181
0.71856
0.7245
0.72466
0.71545
0.73208
0.73366
0.76948
0.7839
0.795
0.8024
0.88368
0.98168
0.96973
0.93971
0.90675
0.92146
0.94552
0.96045
0.96046
0.96028
0.95808
0.95788
0.91611
0.90106
0.82905
0.70391
0.69446
0.65508
0.65492
0.59442
0.59394
2.565
2.5419
2.5347
2.5222
2.5202
2.5202
2.4858
2.472
2.4716
2.4587
2.4562
2.4405
2.4353
2.4351
2.4262
2.4262
2.3953
2.3948
2.3817
2.3801
2.3787
2.3286
2.3284
2.3196
2.3167
2.2886
2.251
2.2395
2.2216
2.2167
2.1955
2.1953
2.1835
2.1367
2.1329
2.1253
2.1174
2.1106
2.1102
2.1102
2.1047
2.1045
2.1044
2.0892
2.0868
2.0866
2.0856
2.0577
2.0549
2.0348
2.0332
2.0333
2.0183
2.0188
2.0174
2.0163
2.0115
1.9961
1.9842
1.9801
1.9759
1.9759
1.9576
1.9388
1.9085
1.9076
1.887
1.8869
1.8845
1.8792
1.8753
1.8752
1.884
1.8905
1.8735
1.8669
1.7777
1.7643
1.7544
1.751
1.751
1.7179
1.7167
1.7065
1.7676
1.7977
1.8176
1.8482
1.8556
1.8612
1.861
1.8575
1.8562
1.8319
1.8168
1.8166
1.8055
1.8054
1.705
1.6967
1.6208
1.6195
1.5979
1.5896
1.536
1.5238
1.4603
1.3473
1.3205
1.1818
1.1611
1.1461
1.1247
1.0572
1.0321
0.97314
0.88628
0.85237
0.83502
0.77951
0.75156
0.7509
0.78949
0.79287
0.8197
0.8459
0.87293
0.87582
0.87693
0.90222
0.94857
0.95237
0.96229
0.99256
1.0113
1.0828
1.0996
1.0997
1.1862
1.3131
1.3603
1.4396
1.4455
1.4789
1.4773
1.4755
1.3593
1.3332
1.2221
1.2056
1.2054
1.1456
1.1026
1.0807
1.0709
1.0648
1.0635
1.0606
1.0745
1.0746
1.0746
1.1355
1.1423
1.1424
1.1913
1.1923
1.2174
1.2244
1.2304
1.2307
1.2059
1.2026
1.1357
1.1309
1.1165
1.1122
1.0813
1.0784
1.0692
1.0692
1.0696
1.0941
1.0986
1.1047
1.1339
1.1578
1.1823
1.1838
1.1841
1.1872
1.1779
1.1653
1.1639
1.1454
1.144
1.1544
1.1572
1.1514
1.1462
1.1348
1.1333
1.1266
1.1252
1.1227
1.1181
1.1175
1.1158
1.1117
1.1106
1.1086
1.0983
1.0873
1.0868
1.0801
1.0716
1.0658
1.0482
1.0153
1.0144
1.0097
1.0006
1
0.99687
0.98714
0.97815