# vtk DataFile Version 3.0
vtk output
ASCII
DATASET POLYDATA
POINTS 61792 float
-18.104 -196.46 203.68
-13.093 -177.88 140.66
25.08 -183.58 106.37
33.816 -182.22 100.98
45.379 -176.03 85.565
47.216 -172.88 80.455
47.103 -171.38 78.352
52.757 -141.62 65.018
54.398 -169.84 73.193
72.74 -162.33 50.637
51.313 -177.32 80.502
57.96 -176.56 76.475
69.289 -171.33 78.614
79.736 -167.7 78.051
28.241 -184.89 105.87
45.244 -197.18 101.75
54.665 -208.1 92.515
61.064 -212.92 84.851
62.216 -212.48 83.919
40.047 -194.72 111.13
53.036 -197.5 119.22
59.249 -192.66 122.07
59.707 -191.64 122.45
-19.662 -176.91 128.09
-48.987 -177.47 97.581
-50.143 -177.63 95.569
-56.477 -175.13 87.16
-62.136 -170.17 78.201
-74.185 -167.55 70.8
-77.04 -168.53 69.035
-98.081 -170.41 57.743
-103.12 -173.25 54.666
-104.23 -173.69 53.064
52.931 -205.85 101.36
62.787 -208.88 99.474
81.214 -217.54 93.841
39.811 -172.77 100.91
43.621 -166.37 100.12
45.123 -147.78 93.478
45.336 -145.13 92.38
62.554 -221.47 102.01
65.226 -232.97 103.19
70.386 -243.9 104.15
60.681 -216.66 88.247
82.649 -243.24 72.403
57.874 -182.06 69.045
58.076 -186.69 50.725
57.85 -187.24 50.043
57.975 -186.94 50.143
95.814 -197.77 42.477
48.94 -161.8 61.299
46.033 -157.17 52.907
41.445 -154.59 51.608
44.851 -156.51 49.763
52.196 -159.05 56.589
52.594 -157.32 49.871
53.719 -151.04 32.037
58.855 -159.43 39.471
54.239 -154.97 53.155
71.322 -149.12 63.161
85.961 -180.28 64.931
74.989 -163.55 83.213
44.419 -196.78 117.5
47.939 -190.98 132.86
54.81 -182.51 143.86
66.456 -207.13 100.13
47.661 -189.81 136.16
64.802 -188.05 121.85
71.538 -184.61 122.33
65.675 -187.06 120.95
61.03 -202.88 123.59
44.474 -144.53 93.947
52.133 -153 101.02
49.215 -137.76 119.89
70.007 -224.59 75.151
74.374 -229.96 70.956
73.003 -227.19 73.649
64.985 -253.91 107.32
71.455 -227.47 101.7
62.763 -224.79 87.15
44.676 -200.51 121.38
48.355 -222.17 129.84
50.451 -224.37 130.94
44.497 -209.43 130.42
47.426 -225.98 130.16
-63.431 -167.47 74.264
-63.838 -159.47 63.915
-57.688 -136.26 53.396
-57.397 -177.58 75.676
-57.652 -180.89 67.734
-54.164 -179.85 122.5
-57.744 -181.24 124.65
-65.609 -188.99 126.48
-70.717 -196.28 126.58
-79.979 -215 127.52
-84.39 -225.09 126.77
-85.321 -228.18 127.6
-66.137 -193.61 87.461
-69.099 -200.41 85.401
-75.076 -215.1 83.176
-78.469 -225.47 81.681
-82.992 -239.07 81.499
-74.357 -274.66 84.307
-75.688 -198.56 85.381
-88.424 -211.87 77.495
-98.539 -220.34 71.864
-64.599 -151.39 49.991
-60.352 -147.08 38.432
-58.423 -137.06 18.61
-51.134 -150.28 27.751
-70.282 -142.8 40.095
-71.436 -140.39 37.46
-70.898 -143.1 38.85
-68.794 -161.45 66.484
-78.179 -145.63 62.632
-78.99 -141.17 61.631
-82.187 -142.3 62.533
-84.361 -152.28 52.862
-90.744 -144.16 45.24
-91.454 -150.6 46.541
-113.19 -177.85 50.148
-99.288 -170.05 57.385
-85.297 -171.01 66.47
-84.189 -162.53 68.844
-98.365 -158.84 65.976
-106.15 -158.77 65.783
-100.45 -157.32 64.149
-85.885 -161.04 69.501
-66.951 -187.9 55.704
-71.433 -191.49 51.722
-68.547 -186.75 53.141
-56.638 -166.97 90.334
-55.599 -163.56 91.226
-50.629 -147.83 99.181
-51.314 -157.07 85.368
-49.556 -156.65 82.494
-50.856 -155.71 84.803
-61.859 -157.38 91.712
-64.154 -138.1 91.23
-63.714 -155.28 92.719
-89.559 -212 75.986
-74.265 -217.13 83.491
-88.793 -245.15 81.758
-79.083 -229.55 79.554
-74.121 -211.83 78.764
-88.89 -201.57 83.968
-99.395 -199.78 83.458
-101.62 -197.39 83.417
-101.17 -199.82 82.95
-98.319 -205.95 83.991
-62.733 -172.99 126.37
-65.534 -164.79 131.43
-70.036 -154.67 135.24
-71.168 -143.59 136.88
-75.792 -148.46 139.54
-76.656 -147.29 140.5
-78.548 -146.15 139.7
-64.361 -159.06 137.95
-62.258 -157.1 140.38
-64.018 -156.11 142.61
-73.616 -168.15 127.63
-75.59 -167.04 128.4
-92.933 -165.43 122.55
-64.747 -184.92 135.86
-65.426 -186.8 143.4
-70.5 -182.24 145.59
-71.549 -183.03 147.37
-71.225 -181.07 147.23
-78.541 -190.25 129.51
-82.319 -190.89 131.61
-83.552 -190.06 132.19
-84.789 -191.48 133.26
-85.817 -192.18 135.01
-84.867 -191.89 135.5
-90.215 -192.74 127.84
-94.158 -190.91 127.3
-75.911 -214.04 132.53
-75.153 -215.33 132.8
-95.264 -194.89 126.55
-88.281 -221.18 128.87
-84.628 -228.22 125.11
-77.505 -228.78 139.96
57.004 -128.25 67.526
50.026 -130.45 61.441
83.759 -155.77 39.503
85.165 -157.84 46.376
87.539 -167.23 82.659
87.486 -163.57 76.806
41.734 -144.15 87.088
49.016 -143.81 90.163
56.902 -196.02 40.69
48.451 -190.49 39.251
60.664 -186.61 47.383
53.741 -186.01 47.931
102.56 -208.73 37.481
107.42 -190.74 36.485
36.041 -154.92 55.632
34.813 -156.33 47.376
38.069 -163.06 43.649
43.492 -160.89 46.753
48.556 -146.65 20.006
65.797 -139.29 21.141
57.705 -164.08 33.903
63.513 -161.78 35.678
57.041 -155.18 52.178
54.623 -152.74 53.899
82.787 -142.31 60.023
76.553 -136.44 63.05
92.624 -181.58 67.576
93.725 -175.22 61.941
83.366 -158.72 90.298
76.174 -158.38 87.226
37.287 -143.36 96.243
42.574 -132.17 92.115
56.303 -153.05 101.99
49.389 -144.53 106.8
57.759 -131.98 123
48.077 -127.61 121.29
57.479 -118.53 71.603
61.72 -118.51 65.604
44.349 -125.79 60.777
49.894 -123.51 54.467
92.443 -154.82 31.769
92.764 -148.13 34.908
88.77 -160.27 46.15
90.947 -155.41 47.847
96.219 -166.63 84.298
88.4 -169.85 85.065
94.421 -159.21 77.662
89.262 -162.39 74.244
36.609 -145.66 84.754
41.288 -147.77 83.666
51.063 -146.46 87.871
53.095 -141.07 90.706
57.62 -205.03 36.192
59.648 -198.73 33.312
43.39 -196.46 29.739
41.378 -189.43 30.341
65.029 -188.81 47.93
63.816 -184.44 47.998
51.291 -183.16 49.386
49.49 -185.52 50.68
104.95 -216.42 37.556
112.27 -215.07 30.738
115.35 -186.51 27.637
115.55 -187.52 38.052
34.049 -152.66 59.084
32.239 -159.5 59.172
32.65 -152.5 43.752
30.065 -155.27 47.539
33.615 -165.69 36.545
32.934 -168.15 44.042
43.637 -164.2 48.208
44.58 -161.28 44.62
43.444 -142.17 16.895
45.112 -148.5 8.1283
70.68 -129.24 20.313
72.003 -131.85 7.7997
59.32 -168.04 28.081
54.88 -165.71 30.546
65.713 -162.34 31.469
66.341 -164.4 35.773
58.6 -158.04 52.319
59.932 -155.29 53.91
55.923 -152 58.069
53.133 -151.02 53.98
90.349 -140.29 56.886
89.977 -136.05 60.075
82.664 -128.49 63.251
77.807 -128.35 64.331
97.53 -185.15 66.714
92.961 -183.28 70.061
98.479 -175.2 59.225
100.08 -170.9 62.777
86.261 -154.98 97.347
90.313 -152.44 92.416
73.786 -158.06 91.78
74.732 -154.96 86.395
31.541 -148.59 102.22
31.426 -150.08 96.143
45.572 -123.51 92.135
37.722 -125.51 91.649
58.708 -156.56 101.1
57.96 -155.32 106.5
47.684 -145.3 113.51
42.921 -145.33 113.45
65.437 -131.88 123.42
61.217 -125.29 129.81
48.009 -120.71 130.08
42.198 -124.21 125.02
61.331 -110.87 75.507
55.94 -113.43 75.074
63.005 -109 64.794
65.856 -112.95 61.525
41.53 -122.23 63.127
39.731 -126.35 59.159
48.554 -115.77 50.892
49.764 -122.25 48.845
96.036 -152.8 24.398
97.386 -157.33 29.317
100.62 -143.07 27.66
99.667 -142.93 35.051
89.019 -163.13 43.844
88.947 -163.03 47.776
95.69 -154.63 47.21
91.988 -155.03 50.297
101.91 -168.74 84.021
101.16 -165.16 87.598
86.749 -173.5 84.742
85.721 -171.51 87.045
96.897 -154.82 77.798
101.03 -157.2 76.508
87.887 -160.07 72.13
88.167 -163.15 70.632
33.908 -144.83 81.378
32.919 -144.54 84.399
40.716 -152.73 83.59
42.981 -148.69 80.959
53.652 -146.35 85.196
50.895 -148.38 86.761
55.892 -139.79 93.273
55.095 -138.65 89.021
61.579 -210.32 35.466
57.698 -212.08 29.572
65.677 -199.99 30.418
60.964 -197.1 29.2
39.418 -203.14 24.611
41.41 -198.22 21.292
38.235 -188.41 20.578
34.953 -188.27 27.225
68.67 -191.71 46.529
68.291 -190.12 51.224
65.828 -182.95 52.422
65.104 -182.03 46.99
50.057 -181.45 47.7
52.364 -181.06 52.297
48.078 -184.2 55.664
47.815 -187.21 50.596
100.9 -221.71 33.853
104.69 -218.75 41.225
119.32 -226.1 27.663
122.43 -216.35 28.714
125.04 -187.7 22.768
119.18 -178.68 22.546
120.66 -190.72 41.566
117.28 -183.03 40.5
29.914 -149.96 60.472
35.249 -150.4 60.13
29.108 -160.83 63.066
31.721 -163.7 60.895
33.7 -149.95 40.924
30.863 -147.29 43.174
28.562 -154.79 48.729
26.821 -156.74 46.578
33.006 -165.75 31.763
28.541 -168.22 33.182
27.54 -170.07 43.797
31.443 -171.63 46.087
45.268 -166.25 47.857
47.005 -161.58 43.596
44.804 -159.2 42.762
43.182 -135.08 13.949
40.744 -139.55 19.364
42.692 -142.79 -0.69695
41.51 -154.8 2.9511
75.297 -124.66 23.182
67.509 -121.08 20.083
83.376 -127.5 1.5391
68.888 -124.6 -1.1343
59.609 -168.65 22.735
60.88 -172.64 25.703
53.143 -163.36 28.274
52.857 -167.51 30.89
69.236 -162.39 29.398
65.747 -159.12 28.603
67.111 -166.89 37.305
69.946 -165.28 35.684
58.286 -159.63 50.88
60.857 -161.57 54.922
63.266 -152.57 54.253
63.543 -156.19 54.396
56.607 -154.08 61.647
56.173 -149.45 60.345
52.129 -148.98 50.497
53.952 -147.81 53.077
90.609 -139.24 53.821
96.94 -141.26 57.446
95.41 -130.24 55.907
95.601 -134.64 63.634
86.628 -123.02 68.962
85.515 -121.16 58.192
78.705 -126.07 70.494
76.156 -126.87 63.888
97.628 -189.2 63.348
103 -187.56 68.295
90.436 -186.64 70.702
90.059 -183.68 72.497
98.494 -175.09 55.917
99.621 -177.86 57.019
105.99 -166.91 60.666
106.21 -170.57 65.147
90.457 -153.99 102.93
85.395 -152.16 101.67
95.405 -148.38 96.982
92.692 -146.01 91.626
73.694 -160.98 94.029
69.902 -160.52 92.559
71.798 -154.67 84.007
75.391 -151.72 85.088
30.076 -152.8 106.49
24.687 -154.24 105.75
30.599 -156.39 96.96
28.536 -153.37 93.469
50.805 -119.28 94.274
45.19 -114.74 93.333
34.504 -121.88 94.844
34.47 -123.09 88.446
58.351 -158.56 97.937
57.233 -161.24 100.96
56.483 -159.29 110.04
60.956 -154.54 108.96
49.129 -143.89 115.51
48.985 -148.82 117.95
40.586 -148.17 121.1
39.107 -150.36 117.12
72.338 -127.49 122.14
69.281 -133.85 121.93
65.598 -118.42 128.88
63.545 -124.39 138.19
46.15 -120.38 142.82
45.967 -114.1 132.19
38.356 -126.44 127.58
39.343 -118.58 122.47
66.643 -108.13 79.342
61.108 -103.75 78.925
54.484 -113.71 77.266
52.181 -109.21 74.047
60.417 -102.9 63.129
67.027 -102.37 63.58
66.97 -108.7 56.092
68.311 -112.22 59.134
38.047 -121.11 64.858
41.045 -118.73 64.443
38.461 -128.32 59.287
35.899 -124.84 55.886
45.018 -111.77 49.136
50.095 -110.45 46.475
47.854 -123.63 45.708
53.046 -123.09 46.455
93.786 -150.66 21.427
96.62 -154.06 21.292
97.016 -161.68 26.76
100 -158.7 30.253
[...]
POINT_DATA 61792
SCALARS radius double 
LOOKUP_TABLE default 
7.6384
7.5462
5.7518
3.7305
3.0518
2.5289
1.9762
0.61565
1.5797
1.439
1.6238
1.4175
1.0793
0.80636
5.4906
2.5643
1.6877
1.2748
0.98248
2.8283
1.293
0.58649
0.79873
6.1741
4.3788
4.5653
3.7432
2.5054
1.5097
1.0293
0.93115
0.93971
0.59394
1.751
1.0745
0.73874
2.3116
0.99573
0.88832
0.82469
1.0631
1.0362
0.57426
1.272
0.77828
0.86364
0.61784
0.63703
0.73027
1.0246
2.0005
1.1743
0.76676
0.70467
1.5396
1.598
0.72433
0.91494
0.64227
0.58033
0.85137
0.73415
2.7868
1.0242
0.82551
0.68426
0.71222
0.74456
0.4364
0.55559
0.67246
0.42953
0.94401
0.82513
0.79739
0.6412
0.66311
0.75755
0.71419
0.6034
1.4364
1.0818
0.68783
0.48158
0.58375
2.0119
1.5527
0.94046
1.3896
0.86218
3.1308
2.5627
1.789
1.4613
1.2809
0.91572
0.31562
2.3034
1.3546
1.2498
1.0697
1.033
0.77185
1.307
1.0475
0.83454
1.7705
1.3624
1.1703
0.58539
1.2685
0.83608
0.90794
1.2689
0.70111
0.73802
0.38526
1.2864
0.53948
0.83451
0.47523
0.75224
0.6511
0.79664
0.95744
0.74472
0.64515
0.59313
0.90925
0.7703
0.6212
1.265
1.1376
0.6339
1.0029
0.73047
0.61234
0.86034
0.83696
0.869
0.63159
0.54458
0.48599
0.77461
0.81916
0.96589
0.85902
0.61829
0.79946
0.67231
1.6903
1.3338
1.1998
0.56372
0.90673
0.71466
0.57422
0.59257
0.58554
0.34249
0.73466
0.71553
0.86514
1.0501
0.94804
0.7908
0.53649
0.67964
0.97098
0.77655
0.53199
0.56229
0.60722
0.68261
0.69902
0.50327
0.84715
0.98983
0.74658
0.61101
0.39349
0.66287
0.53535
0.46552
1.2513
0.82276
0.70118
0.70118
0.62358
0.71712
0.48169
0.55394
0.63502
0.63502
0.891
0.891
0.57978
0.66675
0.61276
0.4029
0.62985
0.5477
0.7956
0.7956
0.55849
0.48565
0.50464
0.43881
0.74032
0.64376
0.63839
0.365
0.37351
0.32479
0.6207
0.82088
0.71751
0.71751
0.4048
0.46552
0.30609
0.4048
0.82276
1.0881
0.71545
0.62213
0.60972
0.60972
0.60972
0.5302
0.54224
0.47152
0.62358
0.54224
0.41886
0.36423
0.36423
0.48169
0.55219
0.48017
0.48017
0.55219
0.77478
0.77478
0.77478
0.58584
0.50416
0.4384
0.57978
0.38121
0.53283
0.46333
0.35035
0.30465
0.36012
0.5477
0.36012
0.47626
0.69182
0.45489
0.69182
0.39555
0.48565
0.4223
0.4223
0.4223
0.43881
0.38158
0.38158
0.28853
0.64376
0.55979
0.55979
0.55979
0.55513
0.48272
0.31739
0.31739
0.32479
0.21355
0.28242
0.28242
0.53974
0.46934
0.6207
0.71381
0.62392
0.54254
0.62392
0.47177
0.352
0.26616
0.4048
0.4048
0.26616
0.20126
0.352
0.26616
0.62213
0.71545
0.94618
0.71545
0.62213
0.47042
0.54098
0.40906
0.46104
0.5302
0.4009
0.5302
0.34861
0.5302
0.34861
0.46104
0.47152
0.41002
0.41002
0.41002
0.31003
0.54224
0.47152
0.41002
0.36423
0.31672
0.31672
0.23948
0.31672
0.27541
0.41886
0.27541
0.48017
0.36307
0.41754
0.36307
0.41754
0.23873
0.36307
0.48017
0.67372
0.50943
0.67372
0.58584
0.44298
0.67372
0.50943
0.44298
0.38121
0.4384
0.38121
0.33149
0.33149
0.50416
0.33149
0.33149
0.35035
0.46333
0.4029
0.4029
0.26491
0.20031
0.26491
0.31315
0.2723
0.47626
0.31315
0.31315
0.31315
0.41414
0.31315
0.60159
0.39555
0.39555
0.34396
0.39555
0.60159
0.29909
0.34396
0.27767
0.4223
0.36722
0.36722
0.31932
0.36722
0.36722
0.36722
0.38158
0.25089
0.28853
0.33181
0.33181
0.28853
0.25089
0.25089
0.48678
0.55979
0.32006
0.48678
0.42328
0.48678
0.42328
0.48678
0.365
0.48272
0.41975
0.41975
0.24
0.276
0.276
0.276
0.16148
0.28242
0.1857
0.16148
0.21355
0.24559
0.21355
0.24559
0.46934
0.35489
0.40812
0.35489
0.53974
0.40812
0.6207
0.46934
0.54254
0.35673
0.47177
0.47177
0.54254
0.41024
0.41024
0.41024
0.30609
0.26616
0.23145
0.23145
0.26616
0.352
0.352
0.20126
0.23145
0.23145
0.17501
0.17501
0.26616
0.30609
0.23145
0.23145
0.54098
0.47042
0.47042
0.62213
0.82276
0.62213
0.62213
0.47042
0.54098
0.47042
0.40906
0.30931
0.40906
0.47042
0.3557
0.3557
0.4009
0.30314
0.4009
0.46104
0.30314
0.34861
0.30314
0.46104
0.30314
0.30314
0.46104
0.2636
0.30314
0.30314
0.4009
0.30314
0.41002
0.41002
0.35653
0.31003
0.26959
0.35653
0.35653
0.31003
0.26959
0.26959
0.47152
0.26959
0.35653
0.41002
0.35653
0.35653
0.20825
0.31672
0.27541
0.20825
0.20825
0.27541
0.18108
0.20825
0.27541
0.23948
0.23948
0.20825
0.23948
0.36423
0.18108
0.23948
0.41754
0.36307
0.31572
0.31572
0.31572
0.36307
0.31572
0.27454
0.36307
0.23873
0.20759
0.18051
0.31572
0.27454
0.41754
0.36307
0.50943
0.58584
0.44298
0.3852
0.58584
0.50943
0.50943
0.50943
0.3852
0.3852
0.58584
0.3852
0.33496
0.44298
0.3852
0.3852
0.28825
0.33149
0.25065
0.38121
0.33149
0.33149
0.25065
0.28825
0.28825
0.28825
0.28825
0.4384
0.14331
0.28825
0.21796
0.28825
0.26491
0.30465
0.35035
0.4029
0.26491
0.35035
0.26491
0.35035
0.30465
0.23036
0.17418
0.17418
0.17418
0.20031
0.23036
0.2723
0.2723
0.15569
0.23678
0.2723
0.41414
0.2723
0.23678
0.2723
0.23678
0.23678
0.2723
0.31315
0.36012
0.2723
0.2723
0.52312
0.39555
0.29909
0.34396
0.34396
0.29909
0.22616
0.29909
0.29909
0.34396
0.52312
0.39555
0.26008
0.22616
0.26008
0.29909
0.24145
0.24145
0.15876
0.36722
0.27767
0.31932
0.20996
0.31932
0.24145
0.27767
0.31932
0.27767
0.31932
0.27767
0.31932
0.27767
0.21817
0.33181
0.21817
0.18971
0.25089
0.25089
0.28853
0.21817
0.28853
0.28853
0.25089
0.25089
0.21817
0.21817
0.21817
0.18971
0.42328
0.36807
0.48678
0.36807
0.27832
0.27832
0.42328
0.27832
0.27832
0.36807
0.36807
0.42328
0.32006
0.36807
0.42328
0.27832
0.276
0.31739
0.24
0.41975
0.365
0.31739
0.365
0.276
0.20869
0.20869
0.24
0.24
0.20869
0.24
0.20869
0.24
0.14041
0.1221
0.16148
0.24559
0.14041
0.16148
0.14041
0.14041
0.1857
0.16148
0.21355
0.21355
0.16148
0.1857
0.16148
0.21355
0.40812
0.26835
0.3086
0.26835
0.35489
0.26835
0.3086
0.26835
0.46934
0.3086
0.35489
0.35489
0.53974
0.53974
0.40812
0.23335
0.47177
0.35673
0.3102
0.3102
0.35673
0.41024
0.41024
0.35673
0.47177
0.47177
0.35673
0.35673
0.35673
0.26974
0.35673
0.26974
0.17501
0.26616
0.23145
0.20126
0.20126
0.15218
0.20126
0.15218
0.17501
0.23145
0.20126
0.30609
0.17501
0.30609
0.15218
0.17501
0.15218
0.20126
0.20126
0.20126
0.15218
0.13233
0.15218
0.15218
0.23145
0.17501
0.26616
0.17501
0.17501
0.20126
0.17501
0.20126
0.40906
0.47042
0.30931
0.40906
0.3557
0.40906
0.54098
0.3557
0.54098
0.71545
0.54098
0.54098
0.54098
0.54098
0.3557
0.40906
0.30931
0.47042
0.3557
0.40906
0.3557
0.26896
0.26896
0.23388
0.26896
0.3557
0.23388
0.40906
0.26896
0.30931
0.30931
0.26896
0.34861
0.2636
0.2636
0.2636
0.2636
0.34861
0.34861
0.4009
0.2636
0.2636
0.30314
0.30314
0.2636
0.22922
0.4009
0.19932
0.2636
0.22922
0.2636
0.22922
0.4009
0.4009
0.22922
0.19932
0.2636
0.22922
0.19932
0.2636
0.34861
0.30314
0.2636
0.22922
0.23443
0.35653
0.35653
0.23443
0.31003
0.26959
0.26959
0.26959
0.23443
0.23443
0.26959
0.31003
0.20385
0.31003
0.20385
0.26959
0.23443
0.20385
0.23443
0.23443
0.41002
0.23443
0.26959
0.31003
0.31003
0.35653
0.31003
0.31003
0.31003
0.31003
0.18108
0.15746
0.18108
0.27541
0.23948
0.23948
0.18108
0.18108
0.15746
0.18108
0.15746
0.23948
0.15746
0.15746
0.18108
0.15746
0.23948
0.18108
0.20825
0.18108
0.20825
0.18108
0.15746
0.20825
0.18108
0.31672
0.23948
0.13693
0.15746
0.20825
0.15746
0.36307
0.27454
0.27454
0.31572
0.23873
0.27454
0.23873
0.27454
0.20759
0.27454
0.20759
0.31572
0.23873
0.27454
0.23873
0.23873
0.31572
0.20759
0.20759
0.20759
0.18051
0.18051
0.15697
0.15697
0.27454
0.20759
0.20759
0.23873
0.20759
0.36307
0.20759
0.31572
0.44298
0.33496
0.25328
0.50943
0.3852
0.29127
0.29127
0.33496
0.50943
0.33496
0.3852
0.44298
0.44298
0.33496
0.44298
0.33496
0.33496
0.33496
0.33496
0.29127
0.50943
0.44298
0.33496
0.29127
0.29127
0.25328
0.29127
0.3852
0.25328
0.33496
0.33496
0.25328
0.21796
0.25065
0.25065
0.28825
0.18953
0.21796
0.33149
0.25065
0.21796
0.28825
0.21796
0.28825
0.21796
0.16481
0.16481
0.25065
0.21796
0.25065
0.16481
0.25065
0.25065
0.21796
0.21796
0.38121
0.18953
0.25065
0.16481
0.18953
0.18953
0.25065
0.23036
0.23036
0.23036
0.26491
0.30465
0.26491
0.35035
0.26491
0.23036
0.23036
0.26491
0.30465
0.20031
0.23036
0.26491
0.30465
0.26491
0.23036
0.20031
0.15146
0.15146
0.15146
0.15146
0.15146
0.15146
0.15146
0.17418
0.17418
0.20031
0.17418
0.23678
0.13538
0.23678
0.2059
0.13538
0.13538
0.13538
0.2059
0.17904
0.23678
0.36012
0.17904
0.23678
0.17904
0.17904
0.2059
0.2059
0.23678
0.2059
0.2059
0.2059
0.2059
0.17904
0.23678
0.23678
0.2723
0.31315
0.23678
0.23678
0.23678
0.23678
0.23678
0.29909
0.45489
0.34396
0.22616
0.26008
0.22616
0.26008
0.29909
0.29909
0.26008
0.26008
0.22616
0.19666
0.19666
0.22616
0.26008
0.26008
0.22616
0.22616
0.29909
0.29909
0.45489
0.34396
0.26008
0.19666
0.22616
0.19666
0.19666
0.22616
0.17101
0.26008
0.19666
0.15876
0.20996
0.20996
0.20996
0.18257
0.31932
0.20996
0.24145
0.27767
0.24145
0.18257
0.18257
0.24145
0.27767
0.20996
0.20996
0.20996
0.24145
0.27767
0.24145
0.24145
0.24145
0.24145
0.27767
0.24145
0.15876
0.20996
0.27767
0.20996
0.24145
0.16497
0.18971
0.18971
0.28853
0.18971
0.16497
0.16497
0.16497
0.21817
0.16497
0.21817
0.21817
0.16497
0.25089
0.16497
0.18971
0.16497
0.25089
0.25089
0.21817
0.18971
0.21817
0.18971
0.21817
0.16497
0.18971
0.18971
0.18971
0.16497
0.18971
0.16497
0.16497
0.27832
0.36807
0.32006
0.27832
0.42328
0.32006
0.24201
0.32006
0.24201
0.21045
0.24201
0.24201
0.21045
0.36807
0.24201
0.24201
0.24201
0.24201
0.32006
0.24201
0.32006
0.21045
0.36807
0.24201
0.27832
0.27832
0.27832
0.32006
0.36807
0.32006
0.21045
0.24201
0.24
0.1578
0.24
0.276
0.20869
0.18147
0.365
0.18147
0.31739
0.18147
0.24
0.276
0.24
0.31739
0.24
0.24
0.13722
0.18147
0.18147
0.1578
0.1578
0.20869
0.20869
0.13722
0.1578
0.18147
0.20869
0.18147
0.18147
0.1578
0.20869
0.18147
0.1221
0.1221
0.10617
0.10617
0.1221
0.14041
0.069811
0.21355
0.1221
0.1221
0.14041
0.092325
0.1221
0.1221
0.1221
0.16148
0.10617
0.14041
0.1221
0.1857
0.16148
0.1857
0.16148
0.14041
0.1221
0.16148
0.1221
0.14041
0.1221
0.14041
0.1857
0.35489
0.20291
0.23335
0.23335
0.26835
0.26835
0.23335
0.23335
0.23335
0.3086
0.23335
0.23335
0.23335
0.26835
0.23335
0.23335
0.3086
0.40812
0.26835
0.23335
0.3086
0.26835
0.23335
0.3086
0.46934
0.26835
0.26835
0.46934
0.35489
0.3086
0.20291
0.20291
0.41024
0.3102
0.3102
0.26974
0.26974
0.20396
0.26974
0.20396
0.26974
0.3102
0.35673
0.26974
0.26974
0.35673
0.26974
0.3102
0.35673
0.41024
0.41024
0.35673
0.26974
0.3102
0.3102
0.3102
0.23455
0.3102
0.23455
0.23455
0.3102
0.26974
0.23455
0.23455
0.13233
0.15218
0.17501
0.23145
0.15218
0.20126
0.17501
0.17501
0.17501
0.11507
0.13233
0.13233
0.15218
0.17501
0.11507
0.13233
0.15218
0.15218
0.15218
0.20126
0.17501
0.15218
0.26616
0.15218
0.15218
0.13233
0.26616
0.23145
0.11507
0.13233
0.15218
0.13233
0.13233
0.10006
0.13233
0.17501
0.10006
0.17501
0.17501
0.15218
0.11507
0.13233
0.11507
0.11507
0.13233
0.13233
0.11507
0.13233
0.20126
0.13233
0.15218
0.15218
0.23145
0.20126
0.15218
0.13233
0.15218
0.13233
0.17501
0.13233
0.15218
0.13233
0.15218
0.17501
0.3557
0.3557
0.40906
0.30931
0.23388
0.26896
0.3557
0.3557
0.30931
0.26896
0.3557
0.3557
0.30931
0.47042
0.30931
0.30931
0.3557
0.47042
0.62213
0.47042
0.47042
0.47042
0.47042
0.40906
0.47042
0.3557
0.3557
0.47042
0.30931
0.30931
0.3557
0.3557
0.26896
0.20337
0.40906
0.26896
0.30931
0.23388
0.3557
0.30931
0.23388
0.30931
0.23388
0.23388
0.20337
0.23388
0.20337
0.20337
0.23388
0.20337
0.23388
0.30931
0.20337
0.20337
0.3557
0.30931
0.20337
0.23388
0.26896
0.23388
0.23388
0.26896
0.20337
0.23388
0.30314
0.30314
0.22922
0.22922
0.22922
0.22922
0.22922
0.17332
0.22922
0.22922
0.19932
0.30314
0.30314
0.19932
0.22922
0.34861
0.19932
0.22922
0.22922
0.19932
0.19932
0.2636
0.2636
0.22922
0.17332
0.22922
0.17332
0.19932
0.34861
0.22922
0.17332
0.17332
0.19932
0.22922
0.17332
0.19932
0.19932
0.22922
0.19932
0.19932
0.22922
0.34861
0.2636
0.34861
0.19932
0.19932
0.17332
0.17332
0.22922
0.22922
0.19932
0.19932
0.17332
0.17332
0.19932
0.22922
0.19932
0.30314
0.2636
0.19932
0.22922
0.22922
0.17332
0.19932
0.20385
0.20385
0.20385
0.31003
0.31003
0.20385
0.20385
0.20385
0.26959
0.20385
0.23443
0.23443
0.23443
0.23443
0.23443
0.20385
0.20385
0.20385
0.20385
0.17726
0.23443
0.23443
0.23443
0.26959
0.17726
0.26959
0.23443
0.17726
0.17726
0.23443
0.17726
0.20385
0.17726
0.17726
0.17726
0.17726
0.20385
0.17726
0.20385
0.20385
0.20385
0.35653
0.17726
0.17726
0.20385
0.23443
0.20385
0.26959
0.23443
0.26959
0.23443
0.31003
0.31003
0.23443
0.26959
0.20385
0.26959
0.26959
0.26959
0.20385
0.26959
0.11907
0.15746
0.13693
0.11907
0.15746
0.15746
0.23948
0.15746
0.18108
0.20825
0.20825
0.18108
0.15746
0.13693
0.13693
0.15746
0.13693
0.13693
0.15746
0.13693
0.13693
0.13693
0.18108
0.20825
0.11907
0.13693
0.11907
0.13693
0.13693
0.15746
0.13693
0.11907
0.11907
0.20825
0.13693
0.15746
0.18108
0.15746
0.13693
0.11907
0.15746
0.18108
0.15746
0.11907
0.15746
0.13693
0.11907
0.18108
0.15746
0.11907
0.15746
0.23948
0.27541
0.20825
0.15746
0.11907
0.11907
0.10354
0.13693
0.18108
0.15746
0.13693
0.13693
0.31572
0.20759
0.18051
0.23873
0.23873
0.23873
0.20759
0.27454
0.20759
0.20759
0.20759
0.23873
0.20759
0.23873
0.20759
0.18051
0.18051
0.23873
0.23873
0.18051
0.18051
0.27454
0.20759
0.15697
0.23873
0.18051
0.18051
0.20759
0.15697
0.20759
0.20759
0.27454
0.18051
0.18051
0.15697
0.18051
0.15697
0.18051
0.15697
0.15697
0.15697
0.15697
0.18051
0.23873
0.18051
0.18051
0.20759
0.20759
0.18051
0.18051
0.31572
0.23873
0.18051
0.18051
0.20759
0.27454
0.3852
0.29127
0.29127
0.25328
0.19151
0.22024
0.3852
0.44298
0.22024
0.33496
0.25328
0.22024
0.25328
0.22024
0.29127
0.25328
0.25328
0.44298
0.22024
0.29127
0.29127
0.33496
0.3852
0.3852
0.33496
0.3852
0.29127
0.25328
0.29127
0.3852
0.25328
0.29127
0.22024
0.29127
0.29127
0.22024
0.29127
0.29127
0.25328
0.22024
0.44298
0.29127
0.3852
0.29127
0.29127
0.29127
0.22024
0.25328
0.25328
0.25328
0.19151
0.22024
0.25328
0.25328
0.33496
0.22024
0.22024
0.16653
0.29127
0.19151
0.29127
0.29127
0.22024
0.22024
0.18953
0.16481
0.18953
0.21796
0.21796
0.18953
0.14331
0.25065
0.16481
0.16481
0.18953
0.16481
0.28825
0.16481
0.21796
0.16481
0.18953
0.25065
0.21796
0.18953
0.16481
0.25065
0.16481
0.18953
0.18953
0.14331
0.14331
0.14331
0.14331
0.18953
0.21796
0.16481
0.18953
0.16481
0.21796
0.14331
0.14331
0.21796
0.16481
0.21796
0.21796
0.18953
0.14331
0.18953
0.18953
0.33149
0.16481
0.16481
0.14331
0.16481
0.21796
0.14331
0.14331
0.16481
0.14331
0.16481
0.14331
0.18953
0.21796
0.20031
0.20031
0.17418
0.20031
0.20031
0.17418
0.23036
0.23036
0.20031
0.26491
0.23036
0.17418
0.30465
0.23036
0.23036
0.17418
0.20031
0.20031
0.20031
0.17418
0.20031
0.23036
0.20031
0.26491
0.17418
0.17418
0.20031
0.17418
0.17418
0.23036
0.17418
0.26491
0.23036
0.15146
0.20031
0.17418
0.17418
0.15146
0.15146
0.15146
0.15146
0.15146
0.17418
0.17418
0.15146
0.15146
0.2059
0.17904
0.11772
0.10237
0.2059
0.13538
0.17904
0.13538
0.11772
0.11772
0.11772
0.11772
0.11772
0.11772
0.17904
0.13538
0.15569
0.13538
0.15569
0.2059
0.31315
0.2059
0.15569
0.15569
0.17904
0.2059
0.15569
0.13538
0.15569
0.15569
0.15569
0.17904
0.15569
0.17904
0.15569
0.2059
0.17904
0.13538
0.15569
0.17904
0.17904
0.17904
0.17904
0.15569
0.13538
0.15569
0.2059
0.15569
0.15569
0.2059
0.17904
0.23678
0.2723
0.23678
0.17904
0.2059
0.2059
0.17904
0.2059
0.17904
0.2059
0.17904
0.2059
0.17904
0.26008
0.19666
0.39555
0.19666
0.29909
0.26008
0.17101
0.19666
0.17101
0.22616
0.19666
0.19666
0.22616
0.19666
0.26008
0.26008
0.22616
0.22616
0.17101
0.22616
0.17101
0.19666
0.17101
0.17101
0.17101
0.17101
0.17101
0.17101
0.19666
0.19666
0.22616
0.17101
0.22616
0.19666
0.1487
0.19666
0.19666
0.26008
0.17101
0.19666
0.26008
0.39555
0.26008
0.29909
0.22616
0.22616
0.17101
0.1487
0.17101
0.19666
0.17101
0.17101
0.17101
0.17101
0.1487
0.19666
0.19666
0.1487
0.1487
0.22616
0.17101
0.17101
0.1487
0.18257
0.15876
0.15876
0.18257
0.18257
0.15876
0.15876
0.15876
0.27767
0.24145
0.18257
0.20996
0.20996
0.20996
0.24145
0.15876
0.20996
0.15876
0.15876
0.15876
0.15876
0.18257
0.20996
0.20996
0.24145
0.18257
0.18257
0.18257
0.15876
0.18257
0.18257
0.15876
0.20996
0.24145
0.18257
0.15876
0.20996
0.20996
0.18257
0.20996
0.20996
0.18257
0.20996
0.24145
0.20996
0.20996
0.18257
0.15876
0.18257
0.24145
0.15876
0.15876
0.18257
0.18257
0.20996
0.14345
0.12474
0.16497
0.10847
0.12474
0.16497
0.14345
0.25089
0.16497
0.16497
0.14345
0.14345
0.14345
0.10847
0.14345
0.09432
0.18971
0.16497
0.14345
0.14345
0.12474
0.18971
0.16497
0.18971
0.14345
0.14345
0.21817
0.12474
0.10847
0.14345
0.16497
0.16497
0.14345
0.14345
0.16497
0.21817
0.21817
0.18971
0.18971
0.16497
0.16497
0.16497
0.18971
0.16497
0.16497
0.14345
0.18971
0.14345
0.09432
0.14345
0.12474
0.16497
0.16497
0.14345
0.14345
0.16497
0.12474
0.14345
0.10847
0.16497
0.12474
0.14345
0.14345
0.14345
0.24201
0.24201
0.32006
0.21045
0.27832
0.24201
0.21045
0.24201
0.183
0.36807
0.21045
0.27832
0.21045
0.21045
0.27832
0.27832
0.183
0.21045
0.183
0.183
0.21045
0.21045
0.21045
0.183
0.183
0.32006
0.183
0.183
0.21045
0.21045
0.183
0.21045
0.21045
0.21045
0.15913
0.27832
0.183
0.21045
0.183
0.27832
0.27832
0.183
0.15913
0.21045
0.32006
0.21045
0.183
0.24201
0.15913
0.24201
0.21045
0.24201
0.24201
0.27832
0.27832
0.27832
0.32006
0.24201
0.27832
0.183
0.183
0.21045
0.21045
0.20869
0.18147
0.13722
0.13722
0.20869
0.20869
0.24
0.20869
0.13722
0.18147
0.1578
0.1578
0.20869
0.31739
0.1578
0.1578
0.20869
0.276
0.13722
0.1578
0.18147
0.20869
0.1578
0.24
0.20869
0.20869
0.276
0.20869
0.20869
0.20869
0.1578
0.20869
0.11932
0.11932
0.1578
0.13722
0.13722
0.1578
0.13722
0.11932
0.13722
0.13722
0.13722
0.18147
0.1578
0.18147
0.11932
0.11932
0.13722
0.13722
0.1578
0.13722
0.11932
0.18147
0.1578
0.1578
0.1578
0.13722
0.13722
0.13722
0.18147
0.1578
0.1578
0.1578
0.10617
0.10617
0.10617
0.092325
0.092325
0.092325
0.092325
0.080283
0.10617
0.10617
0.1221
0.1857
0.1221
0.10617
0.080283
0.10617
0.10617
0.080283
0.1221
0.10617
0.080283
0.080283
0.092325
0.10617
0.080283
0.10617
0.080283
0.10617
0.14041
0.14041
0.092325
0.092325
0.1221
0.10617
0.10617
0.10617
0.1221
0.16148
0.14041
0.14041
0.14041
0.16148
0.1221
0.14041
0.10617
0.1221
0.10617
0.10617
0.10617
0.14041
0.10617
0.10617
0.1221
0.092325
0.092325
0.10617
0.10617
0.1221
0.092325
0.16148
0.17644
0.3086
0.17644
0.15343
0.17644
0.20291
0.17644
0.20291
0.23335
0.20291
0.17644
0.23335
0.20291
0.15343
0.20291
0.20291
0.15343
0.20291
0.26835
0.20291
0.20291
0.17644
0.20291
0.15343
0.20291
0.17644
0.23335
0.23335
0.20291
0.17644
0.20291
0.20291
0.23335
0.26835
0.35489
0.20291
0.17644
0.23335
0.20291
0.20291
0.26835
0.23335
0.20291
0.23335
0.15343
0.20291
0.17644
0.26835
0.3086
0.40812
0.23335
0.23335
0.23335
0.23335
0.40812
0.20291
0.3086
0.23335
0.26835
0.23335
0.17644
0.15343
0.17644
0.17644
0.20396
0.35673
0.26974
0.20396
0.23455
0.26974
0.23455
0.20396
0.23455
0.23455
0.13411
0.17736
0.20396
0.23455
0.17736
0.17736
0.20396
0.23455
0.20396
0.26974
0.3102
0.26974
0.23455
0.23455
0.20396
0.23455
0.3102
0.26974
0.20396
0.23455
0.26974
0.23455
0.3102
0.3102
0.3102
0.35673
0.23455
0.35673
0.26974
0.3102
0.23455
0.23455
0.26974
0.20396
0.20396
0.26974
0.26974
0.23455
0.20396
0.15422
0.26974
0.15422
0.20396
0.20396
0.20396
0.20396
0.20396
0.26974
0.20396
0.23455
0.17736
0.20396
0.20396
0.17736
0.11507
0.11507
0.13233
0.11507
0.13233
0.15218
0.20126
0.17501
0.13233
0.11507
0.17501
0.11507
0.13233
0.15218
0.15218
0.11507
0.13233
0.15218
0.10006
0.10006
0.11507
0.10006
0.10006
0.11507
0.13233
0.13233
0.15218
0.11507
0.10006
0.087009
0.10006
0.11507
0.13233
0.11507
0.13233
0.13233
0.11507
0.17501
0.13233
0.15218
0.13233
0.13233
0.11507
0.23145
0.15218
0.13233
0.13233
0.10006
0.13233
0.10006
0.11507
0.23145
0.15218
0.13233
0.20126
0.087009
0.10006
0.087009
0.11507
0.13233
0.10006
0.11507
0.11507
0.11507
0.087009
0.087009
0.087009
0.10006
0.11507
0.10006
0.15218
0.087009
0.087009
0.15218
0.13233
0.087009
0.15218
0.13233
0.11507
0.087009
0.10006
0.11507
0.10006
0.087009
0.10006
0.087009
0.10006
0.11507
0.10006
0.10006
0.11507
0.10006
0.11507
0.11507
0.17501
0.15218
0.11507
0.10006
0.13233
0.13233
0.13233
0.13233
0.17501
0.20126
0.17501
0.17501
0.11507
0.13233
0.11507
0.11507
0.11507
0.13233
0.11507
0.11507
0.15218
0.13233
0.11507
0.10006
0.13233
0.11507
0.11507
0.11507
0.11507
0.13233
0.11507
0.15218
0.30931
0.26896
0.30931
0.30931
0.3557
0.3557
0.26896
0.23388
0.20337
0.20337
0.20337
0.23388
0.26896
0.30931
0.26896
0.30931
0.26896
0.23388
0.20337
0.26896
0.30931
0.30931
0.30931
0.26896
0.23388