# vtk DataFile Version 3.0
vtk output
ASCII
DATASET POLYDATA
POINTS 2042 float
-8.4711 -145.25 -62.87
-12.818 -141.19 -90.195
16.779 -136.3 -143.49
26.202 -134.74 -151.62
37.115 -131.63 -166.42
41.985 -138.66 -178.88
44.274 -140.25 -190.81
45.817 -140.33 -198.64
45.328 -139.34 -201.97
39.64 -131.24 -170.6
42.92 -122.39 -187.14
43.147 -121.25 -189.31
42.313 -116.89 -198.58
40.856 -114.15 -207.82
-20.812 -140.41 -124.09
-36.198 -138.18 -153.44
-48.403 -152.08 -162.97
-50.485 -160.68 -164.26
-57.527 -182.92 -170.86
-65.058 -201.39 -183.21
-37.732 -140.53 -127.95
-41.021 -140.66 -125.64
-43.543 -143.8 -117.87
-44.799 -156.63 -105.22
-45.582 -158.27 -103.97
-45.602 -166.54 -100.55
-48.295 -173.25 -96.791
-51.13 -176.47 -96.797
-37.327 -137.85 -154.99
-42.502 -130.09 -159.75
-45.979 -121.84 -156.92
-46.901 -120.22 -156.2
-50.539 -106.71 -146.45
-55.776 -100.48 -142.69
-53.697 -111.29 -156.98
-74.724 -103.55 -155.13
-40.797 -124.31 -158.2
-36.72 -120.58 -162.7
-31.818 -119.91 -170.06
-52.967 -120.64 -151.8
-49.198 -101.44 -144.26
-48.409 -98.439 -141.72
-48.317 -158.89 -104.21
-42.121 -136.28 -163.02
-47.8 -134.84 -173.08
-55.595 -135.08 -177.53
-68.281 -140.18 -184.88
-81.163 -147.24 -191.27
-91.736 -155.49 -197.06
40.384 -130.91 -171.48
48.157 -131.85 -178.54
59.017 -136.06 -185.18
67.362 -140.44 -189.04
75.175 -145.55 -196.89
84.955 -148.45 -205.29
77.684 -144.18 -199.12
52.18 -116.08 -218.92
53.1 -108.49 -237.93
52.731 -103.98 -241.85
-51.981 -172.07 -175.69
-51.634 -131.83 -181.99
-52.416 -130.42 -184.86
-52.753 -123.89 -197.68
-54.703 -118.65 -211.45
-56.826 -113.78 -227.04
-40.273 -118.33 -212.68
-42.22 -142.43 -127.03
-61.877 -142.82 -126.39
-83.801 -145.99 -113.02
-50.661 -151.26 -127.45
-67.399 -165.33 -119.87
-42.143 -174.93 -100.73
-49.111 -160.62 -91.878
-43.204 -144.46 -113.06
-41.795 -140.91 -98.552
-39.811 -139.6 -95.768
-35.354 -139.57 -92.999
-39.132 -138.64 -91.425
-39.837 -137.22 -79.222
-46.69 -133.89 -117.45
-45.138 -125.33 -109.17
-43.625 -119.08 -100.39
-41.186 -117.58 -97.734
-40.396 -117.5 -96.888
-40.821 -116.89 -97.024
-46.119 -108.62 -83.149
-46.801 -109.08 -100.47
-71.079 -135.24 -177.68
-75.881 -131.72 -174.86
-90.189 -110.27 -174.59
-79.872 -128.56 -171.52
-78.581 -135.9 -177.92
-98.007 -142.67 -176.78
-90.28 -135.09 -182.26
-69.102 -142.25 -128.17
-88.764 -130.78 -126.74
-96.604 -149.95 -132.33
-73.103 -145.78 -185.25
-42.703 -141.36 -179.21
-49.216 -151.5 -192.37
-52.744 -152.95 -195.07
-57.546 -154.53 -198.55
-54.047 -151.77 -196
-48.701 -154.59 -194.56
-48.19 -157.28 -197.24
-47.081 -155.71 -195.09
-42.881 -142.95 -186.22
-41.438 -144.57 -195.31
-37.619 -144.97 -194.32
48.581 -142.65 -186.65
53.081 -147.38 -187.57
41.824 -116.27 -200.03
38.674 -116.67 -202.59
42.651 -104.09 -210.64
57.736 -93.539 -262.76
59.977 -110.43 -229.38
63.85 -107.26 -238.27
64.113 -105.17 -234.3
31.321 -123.05 -154.53
31.41 -122.41 -154.49
36.949 -113.04 -153.48
49.794 -97.078 -146.98
32.75 -142.73 -144.1
38.535 -144.77 -137.42
40.011 -141.06 -125.05
44.461 -136.65 -120.55
48.377 -133.45 -115.6
48.984 -131.03 -114.54
43.039 -150.3 -146.49
49.935 -157.07 -146.99
57.911 -159.61 -147.79
62.505 -158.99 -145.87
63.443 -157.27 -145.12
47.838 -128.97 -171.59
55.195 -125 -166.73
58.389 -124 -161.85
62.735 -122.19 -158.34
61.179 -125.69 -165.46
62.454 -128.2 -165.46
48.204 -110.78 -194.12
54.214 -94.79 -198.65
60.545 -102.08 -204.03
28.994 -116.82 -160.96
25.761 -112.61 -162.69
24.342 -112.13 -162.89
25.507 -111.33 -162.63
28.252 -100.22 -179.04
39.853 -104.98 -155.14
41.57 -93.955 -159.47
53.941 -122.08 -170.02
64.173 -106.85 -169.3
64.883 -112.63 -176.95
58.447 -124.34 -160.88
72.78 -125.34 -165.7
78.496 -148.62 -190.13
82.187 -149.95 -189
68.783 -165.6 -150.77
54.725 -163.58 -158.75
58.911 -169.73 -161.4
64.832 -169.92 -162.46
39.641 -148.7 -128.29
40.176 -150.4 -126.42
39.556 -156.39 -114.45
41.428 -158.05 -104.28
43.747 -157.82 -101.95
37.213 -157.78 -110.83
41.928 -159.89 -98.183
56.028 -171.43 -148.03
59.306 -177.16 -145.68
-54.369 -156.87 -164.46
-65.308 -164.57 -162.71
-75.619 -169.82 -158.9
-83.941 -172.66 -157.35
-80.28 -174.74 -155.76
-54.511 -171.91 -130.72
-55.174 -186.36 -126.78
-58.211 -193.74 -127.34
-59.977 -195.41 -126.81
-57.104 -200.64 -129.72
-46.383 -187.12 -90.985
-47.035 -201.37 -123.06
-58.292 -200.6 -144.97
-57.723 -202.45 -145.67
-63.668 -211.33 -147
-73.696 -180.81 -175.46
-76.708 -188 -179.15
-79.185 -184.34 -176.47
-81.054 -186.6 -165.91
-60.262 -200.42 -175.99
-62.734 -212.57 -176.36
-50.75 -216.72 -187.01
-55.128 -139.23 -92.559
-58.08 -134.83 -85.121
-59.099 -139.22 -90.145
-52.632 -126.46 -112.19
-59.047 -123.62 -107.35
-67.505 -115.19 -91.709
-68.558 -121.45 -102.67
-68.016 -108.42 -109.36
-32.643 -116.44 -148.79
-34.977 -99.646 -172.49
-47.513 -90.874 -145.81
-57.526 -99.662 -160.32
-56.825 -92.018 -162.09
-63.196 -93.394 -160.65
-53.905 -109.21 -191.45
-50.094 -104.29 -192.36
-55.387 -106.09 -192.33
-58.451 -97.549 -198.13
-59.028 -96.77 -189.2
-62.496 -126.68 -194.3
-71.083 -119.42 -197.28
-74.864 -116.94 -198.35
-73.479 -125.67 -204.84
-86.114 -117.09 -226.05
-87.465 -113.98 -228.75
-87.516 -117.11 -228.7
-89.443 -126 -212.15
-87.807 -101.7 -212.09
-56.845 -109.98 -217.93
40.978 -161.48 -122.18
41.425 -164.17 -121.88
28.33 -183.46 -104.92
24.76 -184.91 -99.515
26.618 -186.25 -104.72
35.796 -199.59 -128.31
49.451 -173.03 -114.04
51.268 -155.95 -117.72
56.284 -155.59 -109.93
32.474 -108.21 -139.3
32.182 -104.41 -132.76
34.391 -98.052 -134.41
74.701 -133.57 -186.41
78.167 -131.62 -187.83
90.406 -133.11 -185.63
57.593 -132.26 -193.37
74.994 -121.22 -205.17
63.275 -132.08 -202.75
75.291 -126.46 -221.07
86.442 -125.53 -230.63
47.434 -142.03 -206.13
46.562 -146.91 -205.41
46.65 -147.21 -206.9
48.227 -147.64 -205.93
68.435 -138.29 -210.45
84.759 -155.17 -192.18
57.114 -168.51 -165.04
56.314 -170.03 -167.45
58.409 -179.68 -149.5
56.878 -182.02 -150.02
62.035 -189.21 -151.46
62.394 -156.88 -201.71
69.805 -162.46 -207.78
80.91 -171.26 -214.27
75.415 -171.87 -216.92
65.672 -162.59 -202.88
68.843 -187.29 -171.87
67.913 -192.69 -173.51
74.295 -189.43 -185.54
73.089 -195.64 -177.68
66.374 -158.57 -143.97
79.503 -155.16 -141.24
69.287 -159.99 -141.67
62.352 -162.84 -115.59
69.335 -171.58 -114.82
65.97 -163.58 -113.58
61.67 -134.31 -116.64
69.203 -135.97 -112.94
67.997 -131.89 -117.19
52.471 -129.05 -108.08
40.684 -135.66 -110.75
37.36 -125.73 -97.288
42.218 -136.66 -95.974
43.495 -136.18 -93.92
30.81 -139.03 -67.701
77.701 -123.14 -225.49
-113.55 -157.29 -197.1
42.598 -102.34 -158.33
43.831 -137.49 -199.39
38.992 -138.26 -204.31
34.014 -115.55 -213.76
40.204 -117.78 -212.98
47.449 -99.811 -241.54
46.074 -101.34 -250.29
51.7 -149.48 -183.24
55.537 -147.12 -185.66
34.316 -116.13 -201.12
34.18 -120.63 -203.3
40.303 -97.538 -212.06
39.267 -101.61 -216.11
51.357 -92.616 -269.45
65.667 -89.018 -266.25
64.058 -111.18 -241.08
70.456 -105.19 -241.66
70.973 -101.29 -233.2
66.617 -97.41 -234.95
57.865 -96.861 -141.88
53.64 -89.399 -142.84
63.705 -122.66 -152.6
67.821 -117.95 -152.79
61.947 -130.6 -168.19
61.869 -133.07 -163.76
57.671 -88.512 -195.05
51.931 -87.326 -200.83
64.979 -102 -204.24
65.614 -96.49 -205.6
19.735 -116.29 -158.95
21.859 -116.37 -166.23
28.234 -110.16 -162.76
23.434 -106.9 -159.63
28.686 -94.271 -178.95
25.607 -99.965 -182.41
45.163 -85.736 -160.42
37.771 -87.069 -160.44
71.386 -103.44 -167.3
66.044 -99.629 -169.22
63.38 -112.08 -180.12
70.771 -110.12 -178.6
54.378 -127.79 -160.47
55.327 -123.88 -158.69
78.082 -128.05 -162.62
79.277 -120.87 -161.46
27.233 -102.45 -123.89
32.769 -108.26 -130.95
40.281 -92.274 -126.23
31.416 -91.752 -129.01
79.519 -129.47 -187.61
77.651 -131.73 -190.35
95.607 -135.94 -181.98
93.944 -127.89 -185.67
80.371 -119.5 -204.65
76.988 -116.3 -204.68
48.35 -139.4 -211.35
42.605 -140.11 -213.07
37.376 -146.29 -217.42
44.573 -150.68 -216.66
51.439 -147.61 -206.2
50.1 -150.04 -207.66
69.533 -139.87 -214.34
65.512 -138.41 -212.69
89.369 -184.09 -221.82
88.846 -178.43 -212.49
73.061 -174.06 -222.59
76.594 -185.58 -222.02
65.265 -164.33 -203.09
67.692 -162.49 -202.83
43.428 -102.8 -161.47
45.732 -102.67 -158.2
45.342 -134.12 -198.32
44.435 -137.35 -197.24
35.219 -136.57 -203.87
34.276 -138.98 -203.94
30.47 -118.89 -219.07
29.502 -113.79 -216.92
42.814 -119.72 -214.05
42.028 -117.93 -216.94
47.486 -148.06 -181.01
52.37 -149.54 -180.11
56.493 -144.5 -184.88
58.129 -149.08 -185.92
61.57 -99.174 -137.35
64.74 -94.091 -138.22
52.655 -83.789 -140.88
58.719 -84.813 -142.15
61.942 -86.426 -192.7
57.761 -82.583 -192.6
50.366 -81.033 -199.48
49.976 -83.632 -204.44
66.696 -103.74 -206.9
66.634 -103.5 -202.16
69.481 -93.177 -208.92
70.938 -93.025 -203.69
20.241 -122.07 -156.17
23.545 -120.63 -167.61
21.319 -117.69 -170.64
29.977 -110.53 -165
30.577 -110.7 -160.04
20.311 -104.08 -158.05
23.298 -103.22 -158.64
25.946 -89.601 -178.39
30.715 -90.355 -181.24
22.768 -101.83 -182.87
26.065 -99.218 -186.14
45.125 -78.309 -160.09
49.107 -81.579 -163.26
35.529 -81.344 -158.01
33.349 -84.448 -160.99
74.802 -100.74 -163.13
77.287 -100.14 -168.89
65.267 -95.726 -168.21
69.291 -94.013 -171.01
60.159 -110.81 -180.36
62.023 -114.83 -182.1
75.142 -105.85 -180.43
73.864 -110.58 -179.94
24.367 -98.655 -118.84
26.175 -101.42 -114.61
35.996 -110.13 -131.51
30.288 -111.29 -131.83
45.989 -91.228 -119.64
41.225 -86.336 -119.44
27.09 -89.437 -128.83
31.097 -85.7 -129.47
86.094 -115.08 -204.84
83.902 -120.68 -205.38
81.052 -111.52 -203.22
75.789 -114.64 -205.1
50.071 -138.91 -214.88
49.24 -136.37 -212.38
43.77 -138.62 -217.81
41.698 -137.44 -214.81
34.062 -147.1 -226.11
31.659 -143.04 -223.06
44.202 -156.94 -221.77
47.215 -150.29 -222.09
53.122 -148.9 -204.12
52.602 -146.17 -205.27
51.891 -152.07 -207.74
52.301 -150.94 -210.31
93.792 -194.34 -223.22
97.954 -188.99 -227.94
90.006 -181.51 -208.3
94.704 -179.26 -209.66
72.832 -171.59 -225.77
67.867 -174.7 -223.99
74.394 -193.04 -226.71
76.592 -191.93 -222.1
63.635 -164.83 -203.14
66.467 -168.1 -202.2
69.121 -162.09 -200.74
69.511 -161.66 -205.56
[...]
POINT_DATA 2042
SCALARS radius double 
LOOKUP_TABLE default 
9.4266
7.5327
5.8581
4.4854
3.9794
2.2177
1.5823
0.95866
0.39173
4.0063
2.7504
2.5935
1.6632
1.2424
7.0884
4.4858
2.4958
1.7354
1.8361
1.1614
3.5782
3.1526
1.7711
1.7626
1.7422
1.0631
1.0791
0.55978
4.4488
1.8635
1.7164
1.7661
1.3054
0.7312
1.0944
0.71159
1.7428
1.259
0.6892
0.82039
1.0603
0.64838
0.8276
4.0531
3.5487
2.3539
1.6457
1.6102
1.0817
3.7517
2.844
1.8269
1.4892
1.3907
1.1581
0.76427
1.8248
1.3941
0.61329
0.55093
2.9963
2.9954
2.2115
2.006
1.8138
1.106
3.1766
1.8045
0.7296
2.3116
0.84849
0.52907
0.79834
1.9944
1.0087
0.7731
0.60833
0.49211
0.5521
1.9413
1.3591
0.9852
0.76966
0.8187
0.66084
0.67349
0.93809
1.673
1.1161
0.57448
0.5001
1.1365
0.60409
0.69888
1.1959
0.72313
0.74343
0.80811
2.0855
1.1233
0.93013
0.63851
0.81447
0.83713
0.5403
0.8799
0.84273
0.89695
0.60172
1.5901
0.72374
1.6786
0.74605
1.0929
1.0608
1.1074
0.77259
0.82952
2.4276
2.4246
1.6007
0.94224
4.4638
2.9078
1.9124
1.8786
1.1319
0.98379
3.0624
2.2581
1.7314
1.3752
1.285
1.7382
1.2894
1.0453
0.68346
0.93398
0.55372
1.0695
1.0564
0.76783
1.4782
0.76222
0.52614
0.65159
0.74839
1.0618
0.98482
1.3667
1.0321
0.78053
0.78347
0.99141
0.72597
0.54296
0.82415
1.7377
1.3606
0.91534
2.359
1.7
1.1607
0.84207
0.4496
0.71406
0.6912
1.4302
0.61272
1.5541
1.6143
1.1173
1.0554
0.85719
1.8586
1.11
0.93324
0.77662
0.86281
0.50262
0.75954
1.1439
0.64391
0.56207
1.1426
0.73165
0.92539
1.0808
1.1095
0.82049
0.7089
1.0923
0.63414
0.97669
1.7618
1.117
0.66238
1.0424
0.85905
1.1671
0.81979
0.67744
0.98075
0.74745
0.62944
1.3597
0.51547
0.9611
1.1391
0.86714
2.3004
1.1891
0.85571
1.7191
1.064
0.53768
0.46147
1.2872
0.82155
1.2244
1.6875
1.9339
0.93286
0.76686
0.76754
0.73724
0.85901
1.1349
0.7574
1.008
0.57743
0.90369
1.0355
0.84344
0.4361
1.9508
0.80601
1.9512
1.3072
0.91574
0.89234
1.3159
0.92414
1.1218
0.96046
0.72524
1.4057
1.1941
1.1374
0.6172
0.84753
1.573
1.4438
0.92666
1.1645
0.67128
1.0799
0.61608
0.85579
0.84962
1.3262
0.68421
0.8319
0.8486
0.78474
0.78786
1.1225
0.96441
0.72996
0.79515
1.5552
0.79165
0.97775
0.99933
0.71205
1.0782
0.63385
0.50339
0.34063
0.2962
1.0804
0.81691
0.46373
0.53329
0.62934
0.47587
0.49054
0.64874
0.95038
0.71862
0.92244
0.92244
0.67182
0.38412
0.72132
0.72132
0.81934
0.71247
0.3398
0.59431
0.4815
0.31659
0.91863
0.91863
0.43901
0.66768
0.45751
0.45751
0.42843
0.5666
0.65078
0.56589
0.85637
0.85637
0.7804
0.89746
0.51321
0.67872
0.51515
0.68128
0.42861
0.86209
0.50211
0.50211
0.78582
0.51669
0.73343
0.63776
0.37922
0.37922
0.52996
0.70087
0.5102
0.77595
0.8036
0.69878
0.97545
0.84821
0.83518
0.83518
0.80579
0.70069
0.88055
1.0126
0.58372
0.50759
0.38063
0.43773
0.2962
0.19476
0.22397
0.25757
0.93945
0.81691
0.71036
0.71036
0.54725
0.4138
0.4138
0.4138
0.46846
0.71247
0.61954
0.61954
0.79881
0.69461
0.79881
0.79881
0.38175
0.38175
0.58059
0.38175
0.39784
0.39784
0.39784
0.32395
0.37255
0.37255
0.49269
0.56589
0.56589
0.4279
0.49208
0.74467
0.74467
0.74467
0.56307
0.67861
0.5901
0.5901
0.7804
0.44627
0.38806
0.59019
0.44627
0.28709
0.43662
0.43662
0.28709
0.68332
0.68332
0.44929
0.44929
0.46084
0.34846
0.60946
0.30301
0.38578
0.44365
0.58673
0.67474
0.69878
0.60763
0.60763
0.60763
0.55771
0.84821
0.48497
0.73758
0.70069
0.60929
0.52982
0.60929
0.76569
0.66582
0.76569
0.88055
0.38381
0.50759
0.38381
0.44138
0.33099
0.33099
0.28781
0.38063
0.25757
0.16935
0.16935
0.14726
0.16935
0.19476
0.16935
0.22397
0.31289
0.47587
0.35983
0.20573
0.35983
0.27208
0.35983
0.27208
0.35422
0.40736
0.40736
0.61954
0.40736
0.53873
0.53873
0.40736
0.69461
0.60401
0.60401
0.52523
0.69461
0.60401
0.52523
0.69461
0.251
0.33195
0.33195
0.251
0.38175
0.50486
0.28866
0.33195
0.34595
0.34595
0.26158
0.34595
0.22746
0.22746
0.34595
0.2817
0.24496
0.32395
0.24496
0.32395
0.32395
0.37255
0.42843
0.28135
0.49208
0.49208
0.37208
0.37208
0.37208
0.4279
0.32355
0.64754
0.48963
0.48963
0.64754
0.48963
0.64754
0.48963
0.37023
0.21708
0.24964
0.37967
0.28709
0.37967
0.24964
0.24964
0.24964
0.51669
0.59419
0.59419
0.44929
0.33973
0.39069
0.39069
0.39069
0.33546
0.33546
0.33546
0.38578
0.5102
0.38578
0.44365
0.58673
0.60763
0.60763
0.52838
0.52838
0.34742
0.52838
0.34742
0.52838
0.48497
0.48497
0.48497
0.73758
0.42171
0.64137
0.55771
0.25236
0.33375
0.44138
0.44138
0.29021
0.33375
0.38381
0.38381
0.28781
0.25027
0.21763
0.28781
0.25027
0.25027
0.33099
0.25027
0.27208
0.1789
0.4138
0.27208
0.31289
0.20573
0.1789
0.1789
0.31289
0.20573
0.23659
0.23659
0.23659
0.31289
0.23659
0.23659
0.30802
0.26784
0.30802
0.35422
0.30802
0.35422
0.40736
0.53873
0.35422
0.35422
0.46846
0.26784
0.46846
0.30802
0.30802
0.35422
0.26158
0.24465
0.24465
0.37208
0.4279
0.28135
0.4279
0.32355
0.28135
0.28135
0.32355
0.24465
0.32355
0.37208
0.28135
0.28135
0.18499
0.16414
0.18876
0.21708
0.18876
0.21708
0.33015
0.24964
0.18876
0.33015
0.18876
0.21708
0.18876
0.21708
0.18876
0.18876
0.21708
0.39069
0.44929
0.33973
0.51669
0.51669
0.39069
0.39069
0.33973
0.25689
0.29542
0.33973
0.25689
0.33973
0.29542
0.25689
0.33973
0.31888
0.30082
0.10793
0.14273
0.16414
0.12412
0.18876
0.14273
0.16414
0.10793
0.16414
0.18876
0.18876
0.28709
0.21708
0.18876
0.16414
0.12412
0.21708
0.28709
0.16414
0.16414
0.14273
0.18876
0.16414
0.12412
0.093849
0.18876
0.16414
0.16414
0.14273
0.16414
0.18876
0.14273
0.33973
0.33973
0.39069
0.39069
0.29542
0.25689
0.25689
0.44929
0.39069
0.44929
0.29542
0.33973
0.29542
0.33973
0.29542
0.29542
0.22338
0.22338
0.25689
0.16891
0.29542
0.25689
0.22338
0.22338
0.29542
0.29542
0.25689
0.25689
0.22338
0.22338
0.29542
0.29542
0.85547
1.1174
1.1174
0.47121
0.71665
0.79595
0.79595
0.39096
0.39096
0.62092
0.62092
0.52265
0.60104
0.5328
0.40287
0.66684
0.57986
0.66742
0.66742
0.64108
0.64108
0.56481
0.74697
0.65861
0.65861
1.0383
1.0383
0.46669
0.5367
0.48458
0.73698
0.53572
0.40508
0.74416
0.74416
0.7388
0.7388
0.59496
0.44988
0.54699
0.72339
0.68239
0.68239
0.68509
0.51803
0.83862
0.72923
0.63475
0.63475
0.52282
0.69143
0.68839
0.45263
0.86898
0.86898
0.61917
0.53841
0.64686
0.74388
0.64686
0.97164
0.7347
0.97164
0.7347
0.3563
0.40975
0.47121
0.62318
0.69213
0.52335
0.69213
0.52335
0.33996
0.25706
0.19438
0.33996
0.4695
0.53993
0.4695
0.53993
0.45448
0.3952
0.52265
0.52265
0.4633
0.23034
0.35032
0.30463
0.55746
0.55746
0.55746
0.55746
0.49114
0.37137
0.37137
0.64954
0.5727
0.5727
0.5727
0.498
0.90287
0.51622
0.90287
0.59365
0.30686
0.40582
0.46669
0.46669
0.36641
0.42137
0.64085
0.48458
0.40508
0.3063
0.35224
0.6471
0.42548
0.56269
0.6471
0.55864
0.64244
0.55864
0.64244
0.51736
0.34017
0.3912
0.25722
0.47564
0.47564
0.62904
0.62904
0.51598
0.59338
0.59338
0.44868
0.59573
0.3917
0.45046
0.45046
0.63412
0.72923
0.63412
0.55141
0.55196
0.55196
0.55196
0.55196
0.45463
0.45463
0.52282
0.60125
0.5986
0.34225
0.39359
0.34225
0.75564
0.57137
0.57137
0.75564
0.46818
0.53841
0.40712
0.46818
0.48912
0.56248
0.42532
0.64686
0.48912
0.56248
0.8449
0.63887
0.63887
0.55554
0.8449
0.63887
0.55554
0.63887
0.30983
0.30983
0.3563
0.3563
0.40975
0.3563
0.54189
0.3563
0.60185
0.39573
0.34411
0.45509
0.39573
0.60185
0.39573
0.45509
0.40826
0.40826
0.40826
0.4695
0.4695
0.4695
0.40287
0.35032
0.2003
0.2003
0.17417
0.30463
0.26489
0.26489
0.42708
0.42708
0.28081
0.32293
0.32293
0.28081
0.56481
0.37137
0.32744
0.498
0.43304
0.498
0.498
0.28473
0.37656
0.43304
0.78511
0.78511
0.44889
0.44889
0.6827
0.78511
0.51622
0.51622
0.26683
0.26683
0.35289
0.23203
0.30686
0.40582
0.40582
0.35289
0.27706
0.31862
0.36641
0.36641
0.36641
0.55726
0.42137
0.36641
0.46584
0.3063
0.35224
0.26635
0.2014
0.3063
0.26635
0.56269
0.36998
0.36998
0.36998
0.4893
0.42548
0.56269
0.36998
0.42241
0.48577
0.55864
0.48577
0.48577
0.36732
0.55864
0.48577
0.44868
0.39016
0.33927
0.51598
0.29501
0.51598
0.39016
0.39016
0.51803
0.51803
0.34061
0.34061
0.29618
0.3917
0.3917
0.29618
0.55141
0.41694
0.55141
0.63412
0.41694
0.55141
0.47948
0.47948
0.47996
0.41736
0.47996
0.41736
0.47996
0.36292
0.47996
0.36292
0.39533
0.39533
0.39533
0.39533
0.39533
0.45463
0.45463
0.52282
0.39359
0.52052
0.29761
0.29761
0.29761
0.34225
0.19568
0.29761
0.65707
0.57137
0.43204
0.49684
0.49684
0.32668
0.57137
0.65707
0.40712
0.35401
0.46818
0.46818
0.35401
0.30784
0.40712
0.35401
0.42532
0.42532
0.48912
0.48912
0.26942
0.26942
0.26942
0.23428
0.23428
0.30983
0.30983
0.26942
0.23428
0.3563
0.26942
0.30983
0.47121
0.23428
0.20372
0.30983
0.52335
0.39573
0.34411
0.34411
0.29923
0.2602
0.39573
0.2602
0.34411
0.34411
0.45509
0.52335
0.34411
0.29923
0.39573
0.29923
0.40826
0.20298
0.26489
0.35032
0.15145
0.30463
0.17417
0.15145
0.15145
0.17417
0.15145
0.15145
0.26489
0.17417
0.23034
0.23034
0.23034
0.17417
0.28473
0.24759
0.28473
0.43304
0.24759
0.37656
0.43304
0.28473
0.24759
0.43304
0.2153
0.24759
0.32744
0.28473
0.28473
0.37656
0.6827
0.39034
0.6827
0.39034
0.39034
0.39034
0.39034
0.39034
0.59365
0.51622
0.59365
0.6827
0.44889
0.44889
0.44889
0.39034
0.40508
0.23161
0.4893
0.4893
0.32172
0.32172
0.32172
0.27976
0.24327
0.32172
0.42548
0.42548
0.36998
0.32172
0.36998
0.4893
0.32172
0.27976
0.34225
0.25879
0.25879
0.45263
0.22504
0.25879
0.19568
0.25879
0.25879
0.19568
0.29761
0.29761
0.17016
0.17016
0.17016
0.25879
0.63583
0.5529
0.61877
0.53806
0.59931
0.39406
0.71338
0.71338
0.49027
0.56381
0.94065
0.61849
0.83631
0.96175
0.49955
0.37773
0.43487
0.37815
0.52529
0.52529
0.39959
0.60772
0.61104
0.7027
0.4828
0.55522
0.70824
0.70824
0.46983
0.46983
0.76513
0.66533
0.25497
0.77995
0.52324
0.76738
1.0149
0.71286
0.53903
0.58908
0.58908
0.37161
0.64995
0.54734
0.41386
0.44824
0.44824
0.7441
0.7441
1.1193
0.84639
0.62121
0.71439
0.47928
0.55118
0.5529
0.5529
0.48078
0.41807
0.46788
0.53806
0.40685
0.46788
0.34266
0.52114
0.34266
0.29796
0.53942
0.62033
0.62033
0.62033
0.53134
0.53134
0.61104
0.41983
0.41983
0.4828
0.4828
0.53553
0.61586
0.61586
0.46568
0.40855
0.26863
0.40855
0.35526
0.57855
0.66533
0.57855
0.57855
0.67822
0.58976
0.26014
0.29916
0.45499
0.58025
0.66728
0.88248
0.58025
0.40758
0.61988
0.40758
0.46872
0.32314
0.32314
0.56518
0.37161
0.47594
0.41386
0.35988
0.27212
0.35378
0.40685
0.30764
0.46788
0.30764
0.35378
0.40685
0.35378
0.29796
0.2253
0.45316
0.34266
0.2591
0.29796
0.2591
0.2253
0.46906
0.46906
0.53942
0.40788
0.53942
0.53942
0.46906
0.46204
0.51283
0.58976
0.3372
0.51283
0.22621
0.22621
0.26014
0.26014
0.26014
0.39564
0.38152
0.50456
0.58025
0.50456
0.66728
0.76738
0.50456
0.38152
0.30819
0.35442
0.35442
0.53903
0.35442
0.30819
0.35442
0.40758
0.46906
0.1967
0.14874
0.1967
0.1967
0.33176
0.33176
0.43875
0.33176
0.43875
0.50456
0.38152
0.43875
0.58025
0.38152
0.43875
0.66728
0.33176
0.43875
0.33176
0.33176
0.87818
1.0099
0.47907
0.91773
0.91773
0.74538
0.74538
0.48876
0.36957
0.63622
0.48107
0.80468
0.60846
0.93979
0.93979
0.71347
0.62041
0.53603
0.61644
0.66403
0.76363
0.66403
0.87818
0.31499
0.31499
0.41658
0.79802
0.60342
0.69393
0.79802
0.4901
0.64816
0.56362
0.64816
0.27945
0.42501
0.32137
0.32137
0.55324
0.31631
0.41833
0.31631
0.46008
0.69972
0.40007
0.52909
0.71061
0.81721
0.81721
0.61792
0.62041
0.53949
0.53949
0.53949
0.46611
0.46611
0.53603
0.53603
0.57741
0.57741
0.57741
0.66403
0.43661
0.57741
0.76363
0.57741
0.27391
0.27391
0.27391
0.27391
0.36224
0.27391
0.45627
0.69393
0.52471
0.52471
0.52471
0.60342
0.69393
0.69393
0.42617
0.42617
0.56362
0.32225
0.42617
0.4901
0.37059
0.56362
0.243
0.15978
0.36957
0.243
0.27945
0.27945
0.243
0.27945
0.48107
0.48107
0.27506
0.27506
0.27506
0.36376
0.27506
0.27506
0.40007
0.40007
0.60846
0.52909
0.34789
0.34789
0.46008
0.46008
0.53733
0.61792
0.71061
0.61792
0.46724
0.71061
0.46724
0.53733
0.53949
0.53949
0.46912
0.40793
0.35472
0.46912
0.46912
0.40793
0.35245
0.40532
0.40532
0.30648
0.46611
0.46611
0.46611
0.40532
0.37966
0.5021
0.5021
0.43661
0.5021
0.43661
0.37966
0.57741
0.37966
0.37966
0.5021
0.5021
0.66403
0.43661
0.5021
0.37966
0.20711
0.23818
0.23818
0.20711
0.23818
0.20711
0.23818
0.20711
0.31499
0.1801
0.1801
0.23818
0.41833
0.23918
0.41833
0.41833
0.23918
0.20798
0.18085
0.23918
0.20798
0.23918
0.31631
0.20798
0.23918
0.20798
0.23918
0.20798
0.30251
0.34789
0.30251
0.34789
0.40007
0.52909
0.40007
0.46008
0.26305
0.30251
0.30251
0.30251
0.30251
0.40007
0.30251
0.40007
0.46724
0.3533
0.3533
0.53733
0.61792
0.3533
0.53733
0.53733
0.4063
0.3533
0.61792
0.4063
0.30722
0.4063
0.30722
0.46724
0.1801
0.15661
0.20711
0.13618
0.20711
0.13618
0.1801
0.15661
0.15661
0.20711
0.13618
0.1801
0.15661
0.20711
0.13618
0.1801
0.27391
0.1801
0.15661
0.15661
0.15661
0.13618
0.20711
0.15661
0.15661
0.13618
0.10297
0.13618
0.15661
0.1801
0.10297
0.11842
0.1801
0.13618
0.11842
0.11842
0.15661
0.13618
0.13618
0.13618
0.36806
0.48676
0.71965
0.62579
0.55168
0.63444
0.42185
0.73782
0.46006
0.34787
0.60366
0.69421
0.30245
0.52899
0.3721
0.42792
0.36301
0.48009
0.71191
0.61906
0.57464
0.43451
0.58565
0.58565
0.81573
0.81573
0.47547
0.62881
0.64646
0.56214
0.67532
0.58724
0.75027
0.56731
0.43706
0.38005
0.66047
0.66047
0.42338
0.55993
0.55143
0.55143
0.73851
0.84929
0.50086
0.57599
0.9064
0.9064
0.64957
0.747
0.35779
0.62579
0.54416
0.35779
0.47972
0.41715
0.47972
0.55168
0.36683
0.36683
0.64158
0.36683
0.3025
0.40005
0.3025
0.26304
0.39692
0.52492
0.39692
0.60366
0.263
0.2287
0.45999
0.263
0.32357
0.28136
0.3721
0.28136
0.31566
0.31566
0.41747
0.36301
0.4681
0.61906
0.53831
0.35395
0.49969
0.37784
0.37784
0.2857
0.50926
0.44283
0.50926
0.44283
0.61681
0.70933
0.61681
0.70933
0.41345
0.41345
0.54679
0.54679
0.56214
0.48882
0.48882
0.48882
0.38612
0.58724
0.38612
0.51064
0.49332
0.65241
0.42897
0.49332
0.57432
0.28554
0.57432
0.37763
0.36816
0.32014
0.48689
0.48689
0.4795
0.41696
0.4795
0.36257
0.55842
0.64219
0.73851
0.55842
0.37872
0.43553
0.43553
0.50086
0.78817
0.51824
0.68537
0.78817
0.56484
0.49117
0.64957
0.56484
0.31113
0.27054
0.54416
0.35779
0.47318
0.35779
0.31113
0.31113
0.41715
0.41715
0.31543
0.36274
0.41715
0.36274
0.47972
0.31543
0.27737
0.31898
0.31898
0.24119
0.5579
0.31898
0.31898
0.27737
0.34514
0.34514
0.45645
0.34514
0.34514
0.30013
0.52492
0.45645
0.20755
0.27449
0.27449
0.20755
0.36301
0.20755
0.31566
0.23869
0.44283
0.33485
0.38507
0.33485
0.33485
0.44283
0.38507
0.38507
0.53635
0.40556
0.61681
0.61681
0.40556
0.53635
0.4664
0.61681
0.35953
0.35953
0.35953
0.35953
0.41345
0.47547
0.41345
0.47547
0.27948
0.48882
0.36961
0.42506
0.42506
0.36961
0.42506
0.42506
0.21591
0.49941
0.2483
0.2483
0.32837
0.49941
0.32837
0.32837
0.27838
0.32014
0.27838
0.27838
0.42338
0.42338
0.36816
0.42338
0.31528
0.41696
0.31528
0.36257
0.41696
0.36257
0.27416
0.31528
0.42225
0.48559
0.55842
0.48559
0.64219
0.36717
0.48559
0.42225
0.32932
0.32932
0.37872
0.37872
0.28637
0.37872
0.43553
0.32932
0.59597
0.68537
0.39186
0.45064
0.59597
0.51824
0.68537
0.51824
0.49117
0.37139
0.32295
0.4271
0.4271
0.56484
0.49117
0.49117
0.27054
0.20457
0.23526
0.23526
0.31113
0.31113
0.23526
0.41146
0.31113
0.31113
0.27054
0.27054
0.27054
0.27054
0.31543
0.36274
0.36274
0.31543
0.27428
0.27428
0.27428
0.31543
0.31543
0.36274
0.31543
0.31543
0.27428
0.41715
0.23851
0.27428
0.24119
0.20973
0.27737
0.20973
0.27737
0.27737
0.20973
0.20973
0.48513
0.24119
0.24119
0.27737
0.20973
0.27737
0.24119
0.20973
0.4664
0.40556
0.35266
0.30666
0.4664
0.53635
0.40556
0.53635
0.35266
0.35266
0.4664
0.4664
0.40556
0.26666
0.53635
0.35266
0.31263
0.31263
0.27185
0.31263
0.23639
0.31263
0.27185
0.31263
0.35953
0.31263
0.31263
0.41345
0.31263
0.35953
0.41345
0.35953
0.24303
0.24303
0.27948
0.42506
0.3214
0.24303
0.27948
0.36961
0.36961
0.27948
0.3214
0.24303
0.27948
0.36961
0.27948
0.36961
0.37139
0.4271
0.2442
0.32295
0.28083
0.28083
0.37139
0.28083
0.32295
0.37139
0.49117
0.32295
0.4271
0.28083
0.4271
0.37139
0.47318
0.15468
0.27428
0.23851
0.31543
0.31543
0.31543
0.2074
0.27428
0.23851
0.23851
0.23851
0.23851
0.2074
0.23851
0.2074
0.27428
0.2074
0.27428
0.27428
0.31543
0.31543
0.23851
0.27428
0.27428
0.2074
0.23851
0.23851
0.31543
0.36274
0.2074
0.2074
0.23851
0.23851
0.20973
0.11992
0.18238
0.18238
0.24119
0.15859
0.18238
0.15859
0.24119
0.20973
0.15859
0.24119
0.18238
0.15859
0.15859
0.18238
0.42185
0.27737
0.20973
0.18238
0.15859
0.20973
0.18238
0.24119
0.18238
0.18238
0.18238
0.24119
0.20973
0.18238
0.18238
0.18238
CELL_DATA 2041
SCALARS generation double 
LOOKUP_TABLE default 
0
1
2
3
4
5
6
7
4
5
6
7
8
1
2
3
4
5
6
2
3
4
5
6
7
8
9
3
4
5
6
7
8
6
7
5
6
7
7
8
9
6
4
5
6
7
8
9
5
6
7
8
9
10
10
7
8
9
5
6
7
8
9
10
9
3
4
5
4
5
8
7
5
6
7
8
8
7
4
5
6
7
8
8
7
6
7
8
9
9
8
9
9
5
6
6
8
5
6
7
8
8
7
8
8
6
7
7
5
6
8
9
9
9
8
9
9
3
4
5
6
2
3
4
5
6
7
3
4
5
6
7
6
7
8
9
8
9
6
7
7
5
6
7
7
6
6
7
7
8
8
9
9
9
10
6
4
5
6
4
5
6
7
8
7
8
5
6
4
5
6
7
7
5
6
7
8
8
9
7
6
7
7
5
6
6
6
6
7
7
6
7
7
5
6
7
7
6
6
7
9
7
8
8
8
9
9
10
10
7
8
9
8
9
10
10
9
9
10
6
7
8
9
9
8
7
5
6
4
5
5
8
9
9
7
8
8
9
10
7
6
7
7
9
10
5
6
6
7
7
6
7
8
8
7
6
7
6
7
7
8
8
6
7
7
6
7
7
7
5
6
6
7
7
10
9
7
8
8
9
9
10
10
7
7
10
10
10
10
10
10
10
10
10
10
7
7
10
10
10
10
8
8
8
8
8
8
8
8
7
7
8
8
9
9
9
9
10
10
10
10
6
6
6
6
10
10
10
10
9
9
8
8
8
8
8
8
10
10
9
9
9
9
8
8
8
8
9
9
9
9
10
10
10
10
8
8
8
8
8
8
8
8
9
9
9
9
9
9
9
9
9
9
9
9
9
9
9
9
8
8
8
8
9
9
9
9
10
10
10
10
10
10
10
10
7
7
7
7
7
7
7
7
10
10
10
10
9
9
9
9
9
9
9
9
9
9
9
9
10
10
10
10
10
10
10
10
9
9
9
9
9
9
9
9
10
10
10
10
10
10
10
10
9
9
9
9
9
9
9
9
9
9
9
9
9
9
9
9
10
10
10
10
10
10
10
10
10
10
10
10
10
10
10
10
10
10
10
10
10
10
10
10
10
10
10
10
10
10
9
9
9
9
9
9
9
9
10
10
10
10
10
10
10
10
8
8
8
8
8
8
8
8
8
8
8
8
8
8
8
8
10
10
10
10
10
10
10
10
10
10
10
10
10
10
10
10
10
10
10
10
10
10
10
10
10
10
10
10
10
10
10
10
10
10
10
10
10
10
10
10
10
10
10
10
10
10
10
10
10
10
10
10
10
10
10
10
10
10
10
10
10
10
10
10
10
10
10
10
10
10
10
10
10
10
10
10
10
10
10
10
10
10
10
10
10
10
10
10
10
10
9
9
9
9
9
9
9
9
9
9
9
9
9
9
9
9
9
9
9
9
9
9
9
9
9
9
9
9
9
9
9
9
10
10
10
10
10
10
10
10
10
10
10
10
10
10
10
10
10
10
10
10
10
10
10
10
10
10
10
10
10
10
10
10
10
10
10
10
10
10
10
10
10
10
10
10
10
10
10
10
10
10
10
10
10
10
10
10
10
10
10
10
10
10
10
10
8
8
8
8
7
7
7
7
9
9
8
8
9
9
7
7
10
10
10
10
9
9
8
8
7
7
7
7
8
8
8
8
8
8
7
7
8
8
9
9
9
9
8
8
8
8
8
8
8
8
8
8
7
7
8
8
8
8
9
9
9
9
9
9
8
8
8
8
8
8
8
8
10
10
10
10
9
9
9
9
10
10
10
10
8
8
8
8
10
10
10
10
9
9
9
9
8
8
8
8
8
8
8
8
9
9
9
9
9
9
9
9
9
9
9
9
8
8
8
8
9
9
9
9
10
10
10
10
10
10
10
10
9
9
9
9
9
9
9
9
9
9
9
9
9
9
9
9
9
9
9
9
8
8
8
8
9
9
9
9
9
9
9
9
9
9
10
10
10
10
10
10
10
10
10
10
10
10
9
9
9
9
9
9
9
9
9
9
9
9
9
9
9
9
10
10
10
10
10
10
10
10
9
9
9
9
9
9
9
9
10
10
10
10
10
10
10
10
9
9
9
9
9
9
9
9
9
9
9
9
9
9
9
9
10
10
10
10
10
10
10
10
10
10
10
10
10
10
10
10
10
10
10
10
10
10
9
9
9
9
9
9
9
9
10
10
10
10
10
10
10
10
10
10
10
10
10
10
10
10
10
10
10
10
10
10
10
10
10
10
10
10
10
10
10
10
10
10
10
10
10
10
10
10
10
10
10
10
10
10
10
10
9
9
9
9
9
9
9
9
10
10
10
10
10
10
10
10
10
10
10
10
10
10
10
10
10
10
10
10
10
10
10
10
10
10
10
10
10
10
10
10
10
10
10
10
10
10
10
10
10
10
10
10
10
10
10
10
10
10
10
10
10
10
10
10
10
10
10
10
10
10
10
10
10
10
10
10
10
10
10
10
10
10
10
10
10
10
10
10
10
10
10
10
10
10
10
10
10
10
10
10
10
10
10
10
10
10
10
10
10
10
10
10
10
10
10
10
10
10
10
10
10
10
10
10
10
10
10
10
10
10
10
10
10
10
10
10
10
10
10
10
10
10
9
9
8
8
8
8
8
8
10
10
10
10
10
10
10
10
10
10
10
10
10
10
9
9
9
9
9
9
9
9
9
9
8
8
8
8
7
7
8
8
10
10
9
9
9
9
10
10
10
10
10
10
10
10
10
10
10
10
10
10
9
9
9
9
9
9
9
9
9
9
9
9
10
10
10
10
10
10
10
10
10
10
10
10
10
10
10
10
10
10
10
10
9
9
9
9
8
8
8
8
9
9
9
9
10
10
10
10
10
10
10
10
10
10
10
10
10
10
10
10
10
10
10
10
10
10
10
10
10
10
10
10
10
10
10
10
10
10
10
10
9
9
10
10
10
10
9
9
9
9
9
9
9
9
10
10
10
10
10
10
10
10
10
10
10
10
10
10
10
10
10
10
10
10
10
10
10
10
10
10
10
10
7
7
6
6
8
8
8
8
8
8
7
7
7
7
7
7
8
8
8
8
8
8
8
8
7
7
9
9
9
9
9
9
9
9
9
9
9
9
8
8
8
8
8
8
8
8
8
8
8
8
9
9
9
9
9
9
9
9
9
9
9
9
9
9
9
9
7
7
8
8
8
8
10
10
10
10
10
10
10
10
10
10
10
10
10
10
10
10
10
10
10
10
10
10
10
10
9
9
9
9
9
9
9
9
9
9
9
9
9
9
9
9
9
9
9
9
9
9
9
9
10
10
10
10
10
10
10
10
10
10
10
10
10
10
10
10
10
10
10
10
10
10
10
10
10
10
10
10
10
10
10
10
8
8
8
8
9
9
9
9
9
9
9
9
10
10
10
10
10
10
10
10
10
10
10
10
10
10
10
10
10
10
10
10
10
10
10
10
10
10
10
10
10
10
10
10
10
10
10
10
10
10
10
10
10
10
10
10
10
10
10
10
9
9
9
9
9
9
9
9
10
10
10
10
10
10
10
10
10
10