# vtk DataFile Version 3.0
vtk output
ASCII
DATASET POLYDATA
POINTS 30866 float
-12.818 -141.19 -90.195
-20.812 -140.41 -124.09
-36.198 -138.18 -153.44
-48.403 -152.08 -162.97
-50.485 -160.68 -164.26
-57.527 -182.92 -170.86
-65.058 -201.39 -183.21
-37.732 -140.53 -127.95
-41.021 -140.66 -125.64
-43.543 -143.8 -117.87
-44.799 -156.63 -105.22
-45.582 -158.27 -103.97
-45.602 -166.54 -100.55
-48.295 -173.25 -96.791
-51.13 -176.47 -96.797
-37.327 -137.85 -154.99
-42.502 -130.09 -159.75
-45.979 -121.84 -156.92
-46.901 -120.22 -156.2
-50.539 -106.71 -146.45
-55.776 -100.48 -142.69
-53.697 -111.29 -156.98
-74.724 -103.55 -155.13
-40.797 -124.31 -158.2
-36.72 -120.58 -162.7
-31.818 -119.91 -170.06
-52.967 -120.64 -151.8
-49.198 -101.44 -144.26
-48.409 -98.439 -141.72
-48.317 -158.89 -104.21
-42.121 -136.28 -163.02
-47.8 -134.84 -173.08
-55.595 -135.08 -177.53
-68.281 -140.18 -184.88
-81.163 -147.24 -191.27
-91.736 -155.49 -197.06
-51.981 -172.07 -175.69
-51.634 -131.83 -181.99
-52.416 -130.42 -184.86
-52.753 -123.89 -197.68
-54.703 -118.65 -211.45
-56.826 -113.78 -227.04
-60.975 -110.62 -233.71
-63.189 -111.14 -235.54
-40.273 -118.33 -212.68
-42.22 -142.43 -127.03
-61.877 -142.82 -126.39
-83.801 -145.99 -113.02
-50.661 -151.26 -127.45
-67.399 -165.33 -119.87
-42.143 -174.93 -100.73
-49.111 -160.62 -91.878
-43.204 -144.46 -113.06
-41.795 -140.91 -98.552
-39.811 -139.6 -95.768
-35.354 -139.57 -92.999
-39.132 -138.64 -91.425
-39.837 -137.22 -79.222
-46.69 -133.89 -117.45
-45.138 -125.33 -109.17
-43.625 -119.08 -100.39
-41.186 -117.58 -97.734
-40.396 -117.5 -96.888
-40.821 -116.89 -97.024
-46.119 -108.62 -83.149
-46.801 -109.08 -100.47
-71.079 -135.24 -177.68
-75.881 -131.72 -174.86
-90.189 -110.27 -174.59
-79.872 -128.56 -171.52
-78.581 -135.9 -177.92
-98.007 -142.67 -176.78
-90.28 -135.09 -182.26
-69.102 -142.25 -128.17
-88.764 -130.78 -126.74
-96.604 -149.95 -132.33
-73.103 -145.78 -185.25
-42.703 -141.36 -179.21
-49.216 -151.5 -192.37
-52.744 -152.95 -195.07
-57.546 -154.53 -198.55
-54.047 -151.77 -196
-48.701 -154.59 -194.56
-48.19 -157.28 -197.24
-47.081 -155.71 -195.09
-42.881 -142.95 -186.22
-41.438 -144.57 -195.31
-37.619 -144.97 -194.32
-54.369 -156.87 -164.46
-65.308 -164.57 -162.71
-75.619 -169.82 -158.9
-83.941 -172.66 -157.35
-80.28 -174.74 -155.76
-54.511 -171.91 -130.72
-55.174 -186.36 -126.78
-58.211 -193.74 -127.34
-59.977 -195.41 -126.81
-57.104 -200.64 -129.72
-46.383 -187.12 -90.985
-47.035 -201.37 -123.06
-58.292 -200.6 -144.97
-57.723 -202.45 -145.67
-63.668 -211.33 -147
-73.696 -180.81 -175.46
-76.708 -188 -179.15
-79.185 -184.34 -176.47
-81.054 -186.6 -165.91
-60.262 -200.42 -175.99
-62.734 -212.57 -176.36
-50.75 -216.72 -187.01
-55.128 -139.23 -92.559
-58.08 -134.83 -85.121
-59.099 -139.22 -90.145
-52.632 -126.46 -112.19
-59.047 -123.62 -107.35
-67.505 -115.19 -91.709
-68.558 -121.45 -102.67
-68.016 -108.42 -109.36
-32.643 -116.44 -148.79
-34.977 -99.646 -172.49
-47.513 -90.874 -145.81
-57.526 -99.662 -160.32
-56.825 -92.018 -162.09
-63.196 -93.394 -160.65
-53.905 -109.21 -191.45
-50.094 -104.29 -192.36
-55.387 -106.09 -192.33
-58.451 -97.549 -198.13
-59.028 -96.77 -189.2
-62.496 -126.68 -194.3
-71.083 -119.42 -197.28
-74.864 -116.94 -198.35
-73.479 -125.67 -204.84
-86.114 -117.09 -226.05
-87.465 -113.98 -228.75
-87.516 -117.11 -228.7
-89.443 -126 -212.15
-87.807 -101.7 -212.09
-54.176 -108.38 -241.92
-50.142 -103.82 -255.6
-51.732 -104.82 -245.92
-56.845 -109.98 -217.93
-55.684 -105.18 -219.19
-60.503 -103.05 -225.89
-60.619 -101.25 -227.53
-63.493 -99.718 -229.67
-69.996 -101.97 -249
-113.55 -157.29 -197.1
-61.093 -93.44 -136.35
-59.646 -100.98 -139.49
-79.568 -97.327 -150.82
-79.884 -105.52 -151.62
-32.083 -121.1 -173.61
-28.343 -122.91 -168.96
-52.476 -123.69 -149.68
-55.7 -121.41 -153.56
-42.256 -95.95 -135.71
-46.794 -96.004 -133.12
-90.638 -163.57 -196.14
-91.662 -158.09 -201.37
-63.701 -116.24 -233.79
-61.095 -116.77 -237.64
-37.266 -120.97 -219.19
-35.284 -122.66 -213.64
-93.936 -106.01 -170.73
-96.65 -109.48 -176.97
-79.621 -126.49 -169.53
-80.958 -130.94 -167.51
-105.08 -138.7 -175.23
-101.75 -144.41 -171.97
-92.159 -135.36 -184.89
-93.139 -132 -182.65
-72.683 -146.41 -181.65
-71.646 -147.74 -185.71
-60.481 -160.93 -199.82
-58.902 -152.96 -205.43
-54.155 -148.14 -196.8
-55.84 -149.02 -193.93
-47.339 -164.46 -200.41
-44.779 -158.32 -206.45
-46.111 -158 -190.91
-44.747 -155.5 -191.93
-42.915 -140.05 -195.79
-42.233 -144.25 -200.7
-31.387 -146.57 -203.85
-27.659 -115.21 -147.5
-30.754 -116.26 -142.7
-34.309 -96.316 -176.51
-33.106 -96.17 -170.12
-43.015 -85.516 -143.46
-51.273 -83.021 -139.57
-55.944 -86.313 -166.19
-55.448 -83.416 -161.94
-66.653 -84.733 -161.67
-68.628 -89.034 -160.3
-46.077 -102.33 -194.98
-47.486 -104.7 -189.97
-54.871 -91.907 -201.08
-61.219 -90.188 -199.86
-58.003 -87.182 -188.95
-63.744 -92.769 -187.54
-75.27 -115.79 -195.83
-77.132 -117.45 -199.99
-95.468 -108.58 -231.75
-100.2 -111.48 -239.14
-103.78 -119.15 -235.97
-93.458 -122.23 -232.41
-97.44 -124.49 -210.84
-91.134 -129.55 -215.36
-88.09 -94.287 -210.88
-95.401 -100.05 -212.87
-49.917 -102.42 -264.53
-44.831 -103.36 -258.84
-44.482 -105.59 -248.9
-48.078 -100.61 -243.57
-51.279 -102.69 -220.5
-55.009 -103.51 -217.19
-55.432 -96.978 -228.27
-58.253 -94.697 -225.24
-62.078 -91.27 -232.29
-67.324 -93.418 -231.68
-73.385 -92.94 -253.58
-80.17 -97.702 -258.41
-118.25 -167.36 -201.35
-120.6 -153.98 -203.96
-64.634 -90.709 -130.7
-65.792 -88.205 -134.78
-59.718 -103.44 -137.43
-61.724 -102.22 -140.2
-83.037 -94.906 -145.11
-84.752 -93.365 -150.71
-80.585 -108.29 -148.11
-84.881 -107.99 -151.04
-29.554 -119.84 -177.29
-35.265 -122.41 -174.88
-26.592 -127.23 -169.75
-25.78 -123.21 -166.46
-51.716 -123.4 -146.62
-51.955 -128.18 -150.61
-55.868 -123.3 -157.22
-57.683 -119.25 -154.29
-37.692 -93.867 -134.35
-37.23 -96.307 -129.79
-46.04 -91.711 -127.45
-44.102 -96.168 -127.66
-87.539 -169.82 -197.73
-92.84 -167.71 -194.03
-89.563 -156.59 -204.71
-94.548 -157.91 -203.7
-66.874 -118.41 -233.8
-63.566 -118.07 -230.23
-57.325 -120.79 -238.48
-62.639 -119.19 -240.39
-37.971 -124.88 -224.13
-31.319 -123.57 -224.86
-33.841 -124.12 -211.04
-30.148 -121.61 -213.21
-98.807 -106.94 -165.33
-94.402 -99.927 -171.49
-99.731 -110.55 -180.15
-101.78 -106.64 -177.72
-79.697 -123.93 -170.25
-75.956 -124.64 -168.91
-84.508 -131.26 -164.5
-78.825 -132.89 -164.48
-108.92 -134.89 -169.76
-111.41 -138 -176.75
-100.7 -145.9 -169.43
-107.69 -147.94 -170.69
-93.551 -137.78 -185.96
-90.888 -135.22 -188.43
-93.791 -129.62 -184.53
-93.82 -130.52 -180.51
-71.788 -149.09 -178.79
-69.871 -147.73 -187.98
-72.546 -150.44 -186.55
-62.352 -165.46 -203.15
-62.853 -164.27 -198.24
-59.267 -149.37 -209.56
-62.234 -153.26 -209.25
-55.924 -144.48 -197.51
-54.504 -145.9 -199.21
-55.282 -147.02 -190.31
-57.555 -149.3 -192.79
-47.873 -169.84 -204.19
-47.288 -169.14 -200.59
-42.412 -156.95 -212.41
-44.219 -160.78 -210.78
-48.193 -158.42 -187.91
-43.938 -158.24 -185.56
-44.218 -153.25 -187.2
-42.324 -155.53 -191.56
-42.179 -142.49 -203.94
-44.05 -143.77 -202.73
-28.547 -141.18 -193.65
-25.473 -145.8 -208.18
-28.418 -149.06 -212.59
-26.038 -112.17 -148.74
-23.419 -118.75 -147.17
-26.144 -116.65 -137.42
-31.896 -118.96 -140.15
-33.074 -97.325 -179.17
-34.148 -90.834 -178.65
-30.411 -96.708 -168.2
-33.893 -92.478 -168.48
-40.953 -80.622 -145.38
-38.776 -84.614 -142.58
-52.724 -76.934 -138.95
-52.27 -78.94 -131.52
-56.266 -86.527 -169.04
-52.761 -85.118 -167.78
-54.911 -75.406 -164.67
-52.553 -79.175 -160.78
-69.658 -78.98 -158.86
-70.677 -79.259 -165.87
-70.141 -89.341 -158.84
-71.707 -89.416 -162.9
-44.756 -102.93 -198.12
-41.45 -100.58 -195.48
-46.054 -108.15 -189.3
-48.357 -105.78 -186.24
-51.741 -89.714 -204.22
-50.963 -86.954 -201.54
-65.196 -86.68 -200.21
-62.229 -84.085 -203.22
-55.575 -82.595 -187.22
-60.317 -79.87 -190.03
-65.869 -93.534 -184.64
-68.264 -91.193 -188.02
-74.753 -112.66 -194.98
-74.035 -117.37 -192.89
-77.389 -120.54 -201.77
-77.471 -115.93 -202.76
-94.828 -104.11 -233.69
-97.566 -105.46 -230.15
-105.66 -108.26 -247.32
-107.57 -106.35 -241.42
-113.19 -118.42 -235.43
-114.34 -124.3 -241.41
-93.663 -124.81 -231.68
-92.703 -123.91 -235.67
-102.42 -121.37 -208.95
-102.74 -126.15 -209.73
-91.287 -133.15 -214.93
-88.397 -131.44 -218.15
-86.105 -90.404 -209.08
-90.725 -88.946 -210.94
-99.875 -95.973 -213.17
-100.01 -101.61 -211.24
-46.315 -100.1 -270.64
-53.06 -96.923 -270.33
-40.062 -109.13 -262.99
-39.833 -105.41 -259.47
-40.543 -113.78 -250.88
-39.542 -107.8 -247.26
-48.414 -97.211 -243.25
-44.442 -97.749 -243.04
-46.925 -102.96 -221.59
-46.417 -98.981 -219.33
-54.084 -104.94 -213.74
-57.161 -102.71 -215
-53.749 -96.3 -229.56
-49.696 -92.494 -227.67
-53.837 -89.294 -223.61
-59.293 -91.388 -223.21
-58.708 -86.023 -234.03
-63.313 -84.217 -232.08
-70.712 -86.943 -229.94
-70.699 -93.381 -232.45
-70.724 -88.258 -257
-76.421 -87.165 -251.56
-82.799 -92.874 -269.59
-87.543 -93.072 -261.3
-122.39 -175.21 -209.39
-121.61 -172.02 -198.95
-127.39 -155.11 -209.82
-122.32 -149.36 -207.62
-67.195 -91.618 -128.74
-67.303 -86.313 -126.07
-70.213 -85.869 -134.32
-67.923 -83.064 -133.69
-58.594 -103.79 -135.48
-59.262 -106.3 -137.45
-61.79 -103.73 -143.02
-63.164 -101.26 -141.59
-85.94 -95.875 -141.41
-86.21 -91.002 -141.55
-89.22 -91.92 -151.83
-86.237 -88.61 -150.2
-79.491 -108.49 -145.41
-79.532 -111.63 -148.04
-88.952 -107.39 -150.22
-88.141 -111.23 -149.31
-27.633 -120.93 -180.66
-27.031 -117.59 -178.93
-38.055 -121.08 -174.5
-37.178 -125.56 -175.81
-28.61 -131.07 -169.2
-22.815 -129.49 -170.53
-26.224 -122.49 -164.15
-21.208 -122.78 -166.01
-53.525 -122.85 -144.34
-49.679 -131.18 -149.71
-52.331 -131.08 -152.74
-53.618 -123.78 -160.04
-57.192 -123.68 -159.58
-58.149 -116.78 -156.9
-59.074 -118 -152.89
-36.196 -92.481 -135.26
-35.092 -94.844 -135.69
-33.906 -93.419 -123.84
-33.04 -97.582 -127.78
-43.695 -87.81 -124.56
-44.038 -88.558 -120.76
-43.156 -98.639 -126.62
-44.62 -97.755 -126.23
-87.002 -174.47 -200.79
-86.826 -175.2 -197.23
-96.303 -169.59 -193.75
[...]
POINT_DATA 30866
SCALARS radius double 
LOOKUP_TABLE default 
7.5327
7.0884
4.4858
2.4958
1.7354
1.8361
1.1614
3.5782
3.1526
1.7711
1.7626
1.7422
1.0631
1.0791
0.55978
4.4488
1.8635
1.7164
1.7661
1.3054
0.7312
1.0944
0.71159
1.7428
1.259
0.6892
0.82039
1.0603
0.64838
0.8276
4.0531
3.5487
2.3539
1.6457
1.6102
1.0817
0.55093
2.9963
2.9954
2.2115
2.006
1.8138
1.02
0.69355
1.106
3.1766
1.8045
0.7296
2.3116
0.84849
0.52907
0.79834
1.9944
1.0087
0.7731
0.60833
0.49211
0.5521
1.9413
1.3591
0.9852
0.76966
0.8187
0.66084
0.67349
0.93809
1.673
1.1161
0.57448
0.5001
1.1365
0.60409
0.69888
1.1959
0.72313
0.74343
0.80811
2.0855
1.1233
0.93013
0.63851
0.81447
0.83713
0.5403
0.8799
0.84273
0.89695
0.60172
1.5541
1.6143
1.1173
1.0554
0.85719
1.8586
1.11
0.93324
0.77662
0.86281
0.50262
0.75954
1.1439
0.64391
0.56207
1.1426
0.73165
0.92539
1.0808
1.1095
0.82049
0.7089
1.0923
0.63414
0.97669
1.7618
1.117
0.66238
1.0424
0.85905
1.1671
0.81979
0.67744
0.98075
0.74745
0.62944
1.3597
0.51547
0.9611
1.1391
0.86714
2.3004
1.1891
0.85571
1.7191
1.064
0.53768
0.46147
1.2872
0.82155
1.4455
1.0768
0.71985
1.2244
0.78147
0.85621
0.71943
0.73235
1.2312
0.63385
0.63583
0.5529
0.61877
0.53806
0.59931
0.39406
0.71338
0.71338
0.49027
0.56381
0.94065
0.61849
0.52443
0.60309
0.83631
0.96175
0.49955
0.37773
0.43487
0.37815
0.52529
0.52529
0.39959
0.60772
0.61104
0.7027
0.4828
0.55522
0.70824
0.70824
0.46983
0.46983
0.76513
0.66533
0.25497
0.77995
0.52324
0.76738
1.0149
0.71286
0.53903
0.58908
0.58908
0.37161
0.64995
0.54734
0.41386
0.44824
0.44824
0.86129
0.99048
0.75404
0.49579
0.7441
0.7441
0.26732
0.46755
0.40128
0.22943
1.1193
0.84639
0.62121
0.71439
0.93634
0.70801
0.62596
0.35789
0.67954
0.67954
0.62559
0.62559
0.55376
0.63683
0.93094
1.0706
0.47928
0.55118
0.5529
0.5529
0.48078
0.41807
0.46788
0.53806
0.40685
0.46788
0.34266
0.52114
0.34266
0.29796
0.53942
0.62033
0.62033
0.62033
0.28031
0.42632
0.49027
0.28031
0.81796
0.53782
0.53782
0.53782
0.39654
0.45602
0.52443
0.52443
0.63237
0.72722
0.47816
0.83631
0.43439
0.43439
0.24836
0.32846
0.32883
0.37815
0.32883
0.28593
0.45678
0.45678
0.45678
0.3972
0.34747
0.30214
0.52845
0.39959
0.53134
0.53134
0.61104
0.41983
0.41983
0.4828
0.4828
0.53553
0.61586
0.61586
0.46568
0.40855
0.26863
0.40855
0.35526
0.57855
0.66533
0.57855
0.57855
0.67822
0.58976
0.26014
0.29916
0.45499
0.58025
0.66728
0.88248
0.58025
0.40758
0.61988
0.40758
0.46872
0.44543
0.51225
0.44543
0.51225
0.32314
0.32314
0.56518
0.37161
0.47594
0.41386
0.35988
0.27212
0.33893
0.38977
0.25628
0.38977
0.56631
0.74894
0.56631
0.86129
0.43112
0.65568
0.43112
0.43112
0.64704
0.48926
0.64704
0.56265
0.23246
0.23246
0.35354
0.40657
0.22943
0.34894
0.19951
0.19951
0.97335
0.84639
0.73599
0.73599
0.46972
0.54018
0.62121
0.62121
0.46553
0.81421
0.61566
0.35201
0.54431
0.27062
0.27062
0.31121
0.51383
0.5909
0.5909
0.44681
0.54399
0.54399
0.54399
0.47303
0.48153
0.48153
0.55376
0.55376
0.70393
0.80952
0.93094
0.80952
0.41677
0.31514
0.47928
0.36241
0.36354
0.48078
0.36354
0.48078
0.41807
0.31612
0.31612
0.36354
0.35378
0.40685
0.30764
0.46788
0.30764
0.35378
0.40685
0.35378
0.29796
0.2253
0.45316
0.34266
0.2591
0.29796
0.2591
0.2253
0.46906
0.46906
0.53942
0.40788
0.53942
0.53942
0.46906
0.24375
0.24375
0.37071
0.32236
0.32236
0.42632
0.24375
0.24375
0.53782
0.71127
0.40667
0.46767
0.40667
0.46767
0.46767
0.46767
0.26073
0.34482
0.26073
0.39654
0.45602
0.29984
0.45602
0.39654
0.47816
0.54988
0.47816
0.63237
0.41579
0.41579
0.54988
0.72722
0.37773
0.32846
0.37773
0.28562
0.21597
0.21597
0.28562
0.24836
0.28593
0.21621
0.18801
0.32883
0.21621
0.28593
0.24864
0.24864
0.30034
0.3972
0.34539
0.3972
0.3972
0.26116
0.34539
0.34539
0.30214
0.26273
0.26273
0.22846
0.45952
0.30214
0.34747
0.26273
0.46204
0.40177
0.46204
0.40177
0.46204
0.34937
0.53134
0.31745
0.36507
0.36507
0.31745
0.41983
0.36507
0.41983
0.36507
0.46568
0.35212
0.53553
0.26625
0.53553
0.53553
0.40494
0.40494
0.35526
0.26863
0.20312
0.23359
0.35526
0.30892
0.30892
0.23359
0.3804
0.50309
0.43747
0.57855
0.43747
0.50309
0.50309
0.43747
0.51283
0.58976
0.3372
0.51283
0.22621
0.22621
0.26014
0.26014
0.26014
0.39564
0.38152
0.50456
0.58025
0.50456
0.66728
0.76738
0.50456
0.38152
0.30819
0.35442
0.35442
0.53903
0.35442
0.30819
0.35442
0.40758
0.29288
0.38733
0.38733
0.44543
0.38733
0.38733
0.38733
0.44543
0.28099
0.28099
0.24434
0.28099
0.37161
0.49146
0.32314
0.32314
0.41386
0.31294
0.35988
0.31294
0.31294
0.20576
0.23663
0.23663
0.29472
0.19379
0.33893
0.29472
0.22285
0.22285
0.33893
0.25628
0.49244
0.37236
0.65126
0.56631
0.49244
0.49244
0.74894
0.49244
0.37489
0.32599
0.37489
0.57016
0.32599
0.37489
0.37489
0.32599
0.56265
0.48926
0.36995
0.42544
0.48926
0.56265
0.48926
0.48926
0.20214
0.17577
0.17577
0.20214
0.20214
0.30742
0.35354
0.26732
0.19951
0.19951
0.30342
0.22943
0.17348
0.15086
0.17348
0.15086
0.84639
0.84639
0.73599
0.73599
0.63999
0.48392
0.63999
0.55651
0.40846
0.40846
0.40846
0.46972
0.46972
0.54018
0.54018
0.46972
0.40481
0.35201
0.70801
0.53536
0.40481
0.53536
0.30609
0.30609
0.20463
0.47331
0.23532
0.23532
0.23532
0.23532
0.27062
0.20463
0.44681
0.44681
0.51383
0.33785
0.51383
0.38853
0.38853
0.38853
0.41133
0.47303
0.47303
0.35768
0.47303
0.41133
0.35768
0.41133
0.41872
0.36411
0.41872
0.41872
0.48153
0.48153
0.41872
0.48153
0.61211
0.53227
0.61211
0.70393
0.80952
0.80952
0.70393
0.61211
0.31514
0.36241
0.27403
0.23829
0.41677
0.23829
0.31514
0.31514
0.31612
0.23903
0.41807
0.41807
0.31612
0.31612
0.41807
0.23903
0.36354
0.27489
0.27489
0.27489
0.27489
0.23903
0.31612
0.31612
0.30764
0.30764
0.30764
0.35378
0.20228
0.26751
0.40685
0.23262
0.26751
0.23262
0.30764
0.30764
0.26751
0.35378
0.30764
0.30764
0.19592
0.2591
0.19592
0.17036
0.19592
0.39406
0.29796
0.2591
0.19592
0.2253
0.2591
0.2253
0.2253
0.2253
0.19592
0.19592
0.35468
0.40788
0.46906
0.40788
0.46906
0.35468
0.35468
0.46906
0.30841
0.46906
0.30841
0.30841
0.40788
0.12119
0.21196
0.21196
0.21196
0.32236
0.24375
0.24375
0.28031
0.28031
0.24375
0.18431
0.37071
0.16027
0.21196
0.16027
0.21196
0.3075
0.46767
0.61849
0.40667
0.3075
0.35363
0.40667
0.40667
0.3075
0.35363
0.3075
0.40667
0.40667
0.35363
0.40667
0.3075
0.22672
0.22672
0.26073
0.29984
0.22672
0.22672
0.34482
0.26073
0.39654
0.34482
0.26073
0.26073
0.29984
0.39654
0.34482
0.26073
0.41579
0.36156
0.47816
0.41579
0.41579
0.36156
0.54988
0.41579
0.36156
0.36156
0.36156
0.3144
0.41579
0.47816
0.63237
0.41579
0.32846
0.21597
0.28562
0.24836
0.32846
0.24836
0.24836
0.21597
0.1878
0.1878
0.1633
0.1878
0.24836
0.24836
0.21597
0.21597
0.24864
0.18801
0.18801
0.16348
0.16348
0.16348
0.18801
0.28593
0.18801
0.18801
0.21621
0.24864
0.21621
0.18801
0.18801
0.21621
0.26116
0.26116
0.34539
0.30034
0.30034
0.26116
0.26116
0.34539
0.34539
0.2271
0.19748
0.2271
0.2271
0.30034
0.2271
0.30034
0.22846
0.26273
0.22846
0.19866
0.19866
0.22846
0.19866
0.19866
0.13063
0.39959
0.22846
0.26273
0.19866
0.30214
0.19866
0.22846
0.40177
0.3038
0.34937
0.3038
0.3038
0.40177
0.26417
0.34937
0.40177
0.3038
0.3038
0.3038
0.46204
0.40177
0.27604
0.27604
0.24004
0.31745
0.24004
0.31745
0.27604
0.27604
0.31745
0.36507
0.31745
0.20873
0.31745
0.36507
0.31745
0.31745
0.40494
0.40494
0.46568
0.46568
0.30619
0.46568
0.46568
0.30619
0.30619
0.35212
0.35212
0.30619
0.30892
0.23359
0.23359
0.20312
0.17663
0.15359
0.15359
0.20312
0.20312
0.30892
0.17663
0.26863
0.26863
0.20312
0.20312
0.20312
0.33079
0.33079
0.43747
0.43747
0.3804
0.3804
0.43747
0.3804
0.3804
0.43747
0.28764
0.43747
0.43747
0.33079
0.3804
0.44594
0.38777
0.38777
0.51283
0.29321
0.29321
0.38777
0.44594
0.1967
0.14874
0.1967
0.1967
0.22621
0.17105
0.22621
0.1967
0.22621
0.22621
0.1967
0.34404
0.33176
0.33176
0.43875
0.33176
0.43875
0.50456
0.38152
0.43875
0.58025
0.38152
0.43875
0.66728
0.33176
0.43875
0.33176
0.33176
0.26799
0.23304
0.26799
0.30819
0.30819
0.30819
0.46872
0.35442
0.30819
0.26799
0.23304
0.26799
0.30819
0.23304
0.35442
0.26799
0.25468
0.25468
0.33681
0.29288
0.29288
0.33681
0.38733
0.33681
0.29288
0.33681
0.29288
0.33681
0.33681
0.33681
0.38733
0.33681
0.24434
0.21247
0.24434
0.24434
0.21247
0.24434
0.21247
0.32314
0.32314
0.42736
0.32314
0.28099
0.24434
0.21247
0.28099
0.35988
0.20576
0.27212
0.20576
0.31294
0.31294
0.27212
0.23663
0.20576
0.27212
0.17893
0.17893
0.20576
0.17893
0.17893
0.20576
0.25628
0.16851
0.14653
0.16851
0.19379
0.29472
0.19379
0.25628
0.16851
0.19379
0.19379
0.16851
0.29472
0.22285
0.19379
0.22285
0.42821
0.32379
0.32379
0.28156
0.56631
0.49244
0.49244
0.42821
0.32379
0.42821
0.42821
0.42821
0.65126
0.56631
0.42821
0.37236
0.32599
0.32599
0.28347
0.28347
0.32599
0.32599
0.37489
0.49579
0.28347
0.21434
0.32599
0.28347
0.32599
0.32599
0.28347
0.2465
0.48926
0.48926
0.42544
0.42544
0.32169
0.32169
0.36995
0.36995
0.36995
0.42544
0.48926
0.48926
0.42544
0.36995
0.42544
0.42544
0.17577
0.15284
0.15284
0.15284
0.15284
0.13291
0.17577
0.15284
0.17577
0.15284
0.26732
0.20214
0.17577
0.30742
0.20214
0.23246
0.13118
0.17348
0.15086
0.17348
0.22943
0.26385
0.19951
0.17348
0.15086
0.11407
0.11407
0.13118
0.15086
0.09919
0.13118
0.13118
0.73599
0.48392
0.4208
0.73599
0.4208
0.63999
0.63999
0.55651
0.55651
0.55651
0.4208
0.4208
0.55651
0.55651
0.48392
0.4208
0.35518
0.30885
0.35518
0.35518
0.35518
0.35518
0.40846
0.40846
0.35518
0.40846
0.46972
0.46972
0.40846
0.46972
0.40846
0.35518
0.35201
0.30609
0.26617
0.30609
0.35201
0.61566
0.40481
0.46553
0.35201
0.26617
0.35201
0.46553
0.26617
0.26617
0.26617
0.26617
0.17794
0.15473
0.41158
0.20463
0.15473
0.20463
0.20463
0.17794
0.117
0.20463
0.15473
0.20463
0.15473
0.23532
0.17794
0.13454
0.29378
0.38853
0.33785
0.38853
0.44681
0.44681
0.29378
0.29378
0.33785
0.44681
0.33785
0.33785
0.33785
0.33785
0.29378
0.33785
0.20451
0.35768
0.41133
0.27046
0.31103
0.41133
0.31103
0.27046
0.31103
0.41133
0.27046
0.35768
0.27046
0.31103
0.35768
0.27046
0.27532
0.36411
0.27532
0.31662
0.31662
0.36411
0.27532
0.36411
0.23941
0.41872
0.41872
0.41872
0.27532
0.36411
0.27532
0.41872
0.46284
0.53227
0.46284
0.46284
0.34998
0.53227
0.61211
0.53227
0.70393
0.70393
0.70393
0.70393
0.40247
0.61211
0.53227
0.46284
0.27403
0.27403
0.31514
0.23829
0.23829
0.23829
0.20721
0.20721
0.27403
0.36241
0.18018
0.20721
0.27403
0.18018
0.27403
0.20721
0.20785
0.27489
0.20785
0.20785
0.20785
0.36354
0.23903
0.36354
0.27489
0.18074
0.23903
0.27489
0.36354
0.27489
0.20785
0.20785
0.31612
0.20785
0.18074
0.23903
0.20785
0.23903
0.23903
0.18074
0.23903
0.23903
0.20785
0.20785
0.27489
0.18074
0.18074
0.27489
0.26751
0.20228
0.26751
0.26751
0.26751
0.17589
0.30764
0.30764
0.17589
0.17589
0.23262
0.20228
0.23262
0.35378
0.20228
0.20228
0.20228
0.23262
0.20228
0.20228
0.26751
0.23262
0.26751
0.17589
0.23262
0.20228
0.30764
0.26751
0.20228
0.26751
0.23262
0.26751
0.17036
0.17036
0.2253
0.12882
0.14814
0.17036
0.14814
0.14814
0.14814
0.17036
0.34266
0.14814
0.2591
0.17036
0.2253
0.19592
0.17036
0.17036
0.17036
0.19592
0.17036
0.2253
0.19592
0.19592
0.14814
0.19592
0.17036
0.19592
0.12882
0.17036
0.17036
0.17036
0.26819
0.30841
0.35468
0.20279
0.40788
0.30841
0.23321
0.35468
0.30841
0.40788
0.20279
0.23321
0.30841
0.30841
0.30841
0.40788
0.23321
0.26819
0.26819
0.40788
0.35468
0.26819
0.26819
0.26819
0.26819
0.35468
0.30841
0.13937
0.18431
0.18431
0.13937
0.18431
0.18431
0.28031
0.18431
0.21196
0.21196
0.21196
0.18431
0.24375
0.18431
0.24375
0.18431
0.12119
0.21196
0.12119
0.16027
0.32236
0.21196
0.12119
0.13937
0.18431
0.16027
0.13937
0.13937
0.18431
0.13937
0.26739
0.26739
0.40667
0.3075
0.46767
0.53782
0.3075
0.35363
0.26739
0.26739
0.26739
0.3075
0.26739
0.35363
0.35363
0.3075
0.26739
0.26739
0.23251
0.3075
0.23251
0.26739
0.35363
0.23251
0.23251
0.35363
0.26739
0.3075
0.35363
0.35363
0.26739
0.26739
0.19715
0.19715
0.17144
0.19715
0.19715
0.22672
0.26073
0.22672
0.17144
0.19715
0.19715
0.19715
0.29984
0.22672
0.22672
0.19715
0.22672
0.34482
0.29984
0.26073
0.22672
0.17144
0.19715
0.22672
0.26073
0.26073
0.34482
0.22672
0.19715
0.29984
0.17144
0.22672
0.36156
0.23773
0.23773
0.3144
0.27339
0.41579
0.3144
0.36156
0.27339
0.36156
0.3144
0.27339
0.36156
0.47816
0.36156
0.36156
0.23773
0.3144
0.3144
0.20672
0.23773
0.3144
0.23773
0.27339
0.17976
0.36156
0.3144
0.41579
0.54988
0.23773
0.36156
0.23773
0.24836
0.28562
0.1878
0.1878
0.1633
0.24836
0.21597
0.21597
0.21597
0.28562
0.21597
0.21597
0.21597
0.1878
0.1878
0.1633
0.1633
0.1633
0.1633
0.12348
0.142
0.142
0.1633
0.1633
0.1878
0.21597
0.21597
0.21597
0.1878
0.1878
0.10737
0.1878
0.14216
0.21621
0.16348
0.16348
0.16348
0.14216
0.14216
0.12362
0.14216
0.14216
0.14216
0.14216
0.16348
0.16348
0.24864
0.14216
0.16348
0.16348
0.16348
0.16348
0.18801
0.16348
0.21621
0.10749
0.18801
0.12362
0.16348
0.14216
0.16348
0.14216
0.18801
0.16348
0.2271
0.17172
0.2271
0.2271
0.30034
0.26116
0.26116
0.19748
0.26116
0.19748
0.19748
0.2271
0.2271
0.2271
0.26116
0.30034
0.30034
0.19748
0.19748
0.14932
0.17172
0.14932
0.19748
0.19748
0.19748
0.14932
0.19748
0.26116
0.19748
0.19748
0.19748
0.26116
0.17275
0.19866
0.22846
0.19866
0.19866
0.19866
0.17275
0.17275
0.17275
0.17275
0.19866
0.17275
0.15022
0.17275
0.17275
0.15022
0.34747
0.17275
0.13063
0.19866
0.22846
0.17275
0.13063
0.17275
0.17275
0.26273
0.17275
0.17275
0.19866
0.17275
0.34937
0.26417
0.26417
0.22971
0.3038
0.26417
0.26417
0.26417
0.26417
0.26417
0.34937
0.34937
0.22971
0.22971
0.22971
0.3038
0.34937
0.22971
0.26417
0.22971
0.26417
0.26417
0.22971
0.40177
0.26417
0.34937
0.26417
0.24004
0.1815
0.24004
0.24004
0.20873
0.20873
0.27604
0.27604
0.20873
0.1815
0.27604
0.15783
0.24004
0.20873
0.20873
0.24004
0.20873
0.27604
0.31745
0.24004
0.27604
0.1815
0.1815
0.1815
0.20873
0.27604
0.24004
0.31745
0.27604
0.1815
0.27604
0.24004
0.35212
0.26625
0.35212
0.35212
0.30619
0.40494
0.26625
0.40494
0.26625
0.26625
0.40494
0.26625
0.40494
0.40494
0.26625
0.26625
0.26625
0.26625
0.30619
0.30619
0.26625
0.30619
0.26625
0.26625
0.20312
0.26863
0.20312
0.17663
0.17663
0.20312
0.17663
0.13356
0.15359
0.15359
0.13356
0.11613
0.13356
0.13356
0.15359
0.17663
0.15359
0.17663
0.17663
0.26863
0.13356
0.15359
0.23359
0.15359
0.15359
0.23359
0.17663
0.15359
0.17663
0.15359
0.17663
0.13356
0.25012
0.28764
0.28764
0.28764
0.3804
0.25012
0.3804
0.28764
0.33079
0.25012
0.33079
0.25012
0.3804
0.50309
0.33079
0.25012
0.25012
0.33079
0.3804
0.33079
0.25012
0.25012
0.3804
0.33079
0.3804
0.28764
0.28764
0.33079
0.33079
0.3372
0.38777
0.3372
0.3372
0.29321
0.3372
0.44594
0.44594
0.25497
0.25497
0.25497
0.25497
0.3372
0.3372
0.38777
0.29321
0.14874
0.17105
0.11247
0.12934
0.14874
0.17105
0.17105
0.12934
0.14874
0.1967
0.14874
0.12934
0.1967
0.1967
0.17105
0.12934
0.1967
0.14874
0.1967
0.1967
0.17105
0.17105
0.26014
0.29916
0.28849
0.28849
0.28849
0.28849
0.28849
0.38152
0.28849
0.25086
0.38152
0.38152
0.43875
0.28849
0.33176
0.28849
0.38152
0.28849
0.28849
0.50456
0.33176
0.28849
0.38152
0.28849
0.58025
0.28849
0.28849
0.25086
0.38152
0.33176
0.28849
0.28849
0.28849
0.28849
0.20264
0.23304
0.17621
0.20264
0.17621
0.23304
0.26799
0.23304
0.26799
0.23304
0.20264
0.26799
0.40758
0.26799
0.30819
0.20264
0.26799
0.23304
0.20264
0.23304
0.20264
0.20264
0.20264
0.23304
0.26799
0.26799
0.20264
0.20264
0.30819
0.20264
0.20264
0.23304
0.22146
0.14561
0.19257
0.22146
0.25468
0.29288
0.25468
0.22146
0.25468
0.19257
0.29288
0.22146
0.33681
0.19257
0.29288
0.25468
0.25468
0.22146
0.29288
0.25468
0.25468
0.19257
0.29288
0.22146
0.29288
0.16745
0.29288
0.22146
0.33681
0.22146
0.25468
0.29288
0.18476
0.21247
0.18476
0.16066
0.21247
0.18476
0.18476
0.21247
0.1397
0.18476
0.1397
0.16066
0.21247
0.18476
0.18476
0.28099
0.24434
0.24434
0.28099
0.24434
0.37161
0.28099
0.28099
0.16066
0.24434
0.21247
0.21247
0.18476
0.18476
0.18476
0.24434
0.20576
0.31294
0.17893
0.17893
0.20576
0.23663
0.17893
0.17893
0.27212
0.20576
0.27212
0.20576
0.23663
0.23663
0.20576
0.17893
0.15559
0.17893
0.13529
0.23663
0.15559
0.15559
0.15559
0.17893
0.13529
0.15559
0.13529
0.15559
0.15559
0.17893
0.17893
0.12742
0.22285
0.14653
0.14653
0.12742
0.12742
0.12742
0.14653
0.16851
0.14653
0.16851
0.25628
0.14653
0.16851
0.16851
0.22285
0.14653
0.14653
0.14653
0.16851
0.16851
0.16851
0.14653
0.14653
0.25628
0.16851
0.19379
0.19379
0.16851
0.14653
0.14653
0.19379
0.28156
0.37236
0.28156
0.28156
0.28156
0.28156
0.24483
0.24483
0.49244
0.32379
0.37236
0.42821
0.37236
0.42821
0.32379
0.37236
0.28156
0.28156
0.37236
0.32379
0.28156
0.37236
0.37236
0.37236
0.56631
0.42821
0.49244
0.37236
0.37236
0.37236
0.24483
0.32379
0.28347
0.2465
0.21434
0.28347
0.21434
0.2465
0.18639
0.2465
0.28347
0.2465
0.28347
0.28347
0.2465
0.32599
0.43112
0.2465
0.2465
0.2465
0.18639
0.18639
0.28347
0.28347
0.2465
0.2465
0.28347
0.21434
0.28347
0.2465
0.2465
0.2465
0.16208
0.21434
0.27973
0.42544
0.36995
0.42544
0.24325
0.36995
0.32169
0.36995
0.24325
0.27973
0.27973
0.24325
0.27973
0.32169
0.32169
0.27973
0.24325
0.32169
0.36995
0.21152
0.32169
0.42544
0.42544
0.32169
0.36995
0.21152
0.27973
0.32169
0.32169
0.36995
0.36995
0.27973
0.13291
0.15284
0.11557
0.13291
0.13291
0.087389
0.13291
0.11557
0.11557
0.13291
0.11557
0.11557
0.15284
0.1005
0.13291
0.11557
0.13291
0.15284
0.13291
0.13291
0.15284
0.23246
0.17577
0.15284
0.13291
0.15284
0.26732
0.13291
0.17577
0.13291
0.20214
0.13291
0.11407
0.11407
0.15086
0.15086
0.09919
0.13118
0.15086
0.13118
0.13118
0.19951
0.19951
0.22943
0.17348
0.15086
0.15086
0.13118
0.13118
0.13118
0.075002
0.09919
0.075002
0.09919
0.11407
0.075002
0.086252
0.13118
0.086252
0.086252
0.11407
0.086252
0.11407
0.09919
0.48392
0.63999
0.4208
0.36592
0.36592
0.31819
0.55651
0.63999
0.31819
0.36592
0.36592
0.55651
0.4208
0.55651
0.36592
0.48392
0.4208
0.48392
0.48392
0.36592
0.31819
0.36592
0.27669
0.36592
0.4208
0.48392
0.48392
0.4208
0.4208
0.31819
0.36592
0.31819
0.30885
0.26857
0.26857
0.26857
0.26857
0.30885
0.26857
0.30885
0.30885
0.30885
0.30885
0.30885
0.30885
0.35518
0.35518
0.35518
0.26857
0.30885
0.35518
0.26857
0.26857
0.40846
0.26857
0.40846
0.35518
0.30885
0.26857
0.40846
0.35518
0.26857
0.26857
0.30885
0.23145
0.30609
0.26617
0.26617
0.17501
0.23145
0.23145
0.26617
0.30609
0.30609
0.53536
0.40481
0.35201
0.30609
0.40481
0.30609
0.17501
0.30609
0.20126
0.23145
0.26617
0.30609
0.23145
0.40481
0.23145
0.23145
0.23145
0.20126
0.20126
0.23145
0.15218
0.23145
0.15473
0.13454
0.13454
0.13454
0.17794
0.35789
0.17794
0.15473
0.13454
0.117
0.17794
0.117
0.17794
0.117
0.117
0.15473
0.10174
0.10174
0.15473
0.17794
0.13454
0.13454
0.117
0.17794
0.117
0.13454
0.20463
0.117
0.10174
0.15473
0.117
0.117
0.25546
0.25546
0.29378
0.33785
0.29378
0.25546
0.29378
0.33785
0.38853
0.38853
0.38853
0.33785
0.25546
0.25546
0.25546
0.25546
0.29378
0.29378
0.33785
0.38853
0.29378
0.22214
0.25546
0.29378
0.29378
0.29378
0.29378
0.29378
0.25546
0.25546
0.29378
0.25546
0.27046
0.31103
0.35768
0.27046
0.23518
0.20451
0.27046
0.23518
0.35768
0.31103
0.23518
0.27046
0.23518
0.23518
0.27046
0.27046
0.27046
0.35768
0.23518
0.20451
0.27046
0.31103
0.23518
0.23518
0.27046
0.20451
0.31103
0.27046
0.23518
0.23518
0.23941
0.20818
0.23941
0.31662
0.23941
0.15741
0.27532
0.27532
0.18103
0.27532
0.31662
0.23941
0.23941
0.20818
0.31662
0.27532
0.20818
0.20818
0.23941
0.36411
0.27532
0.36411
0.23941
0.36411
0.23941
0.20818
0.27532
0.31662
0.23941
0.23941
0.36411
0.23941
0.40247
0.34998
0.46284
0.34998
0.34998
0.40247
0.40247
0.40247
0.30433
0.30433
0.46284
0.40247
0.53227
0.34998
0.40247
0.46284
0.34998
0.61211
0.40247
0.61211
0.61211
0.53227
0.46284
0.61211
0.34998
0.34998
0.53227
0.34998
0.34998
0.46284
0.40247
0.40247
0.18018
0.23829
0.23829
0.23829
0.27403
0.23829
0.20721
0.18018
0.20721
0.15668
0.20721
0.18018
0.15668
0.18018
0.18018
0.15668
0.23829
0.15668
0.23829
0.31514
0.13624
0.15668
0.15668
0.18018
0.13624
0.23829
0.15668
0.15668
0.23829
0.18018
0.18018
0.18018
0.15717
0.18074
0.20785
0.23903
0.18074
0.18074
0.18074
0.18074
0.18074
0.18074
0.23903
0.31612
0.20785
0.20785
0.31612
0.20785
0.23903
0.18074
0.15717
0.15717
0.18074
0.20785
0.23903
0.15717
0.20785
0.31612
0.23903
0.20785
0.15717
0.18074
0.15717
0.18074
0.27489
0.18074
0.15717
0.18074
0.15717
0.15717
0.18074
0.20785
0.18074
0.18074
0.20785
0.20785
0.20785
0.18074
0.15717
0.15717