# vtk DataFile Version 3.0
vtk output
ASCII
DATASET POLYDATA
POINTS 85714 float
-8.4711 -145.25 -62.87
-8.4867 -145.16 -63.084
-8.6071 -144.95 -64.024
-8.985 -144.59 -65.766
-9.0022 -144.58 -65.856
-9.0134 -144.57 -65.959
-9.044 -144.55 -66.235
-9.0732 -144.56 -66.435
-9.2803 -144.54 -67.378
-9.3148 -144.53 -67.645
-9.3873 -144.52 -68.267
-9.4238 -144.46 -68.74
-9.5294 -144.35 -69.477
-9.6084 -144.28 -69.793
-9.8544 -144.04 -70.807
-9.8775 -144.03 -70.935
-10.019 -143.93 -71.683
-10.112 -143.85 -72.06
-10.154 -143.8 -72.275
-10.179 -143.77 -72.344
-10.405 -143.61 -72.919
-10.437 -143.58 -73.033
-10.538 -143.51 -73.394
-10.656 -143.42 -73.868
-10.688 -143.37 -74.04
-10.719 -143.33 -74.207
-10.98 -143.09 -75.362
-11.144 -142.94 -76.146
-11.207 -142.94 -76.313
-11.234 -142.92 -76.39
-11.297 -142.89 -76.654
-11.397 -142.86 -77.072
-11.462 -142.82 -77.467
-11.652 -142.77 -78.201
-11.75 -142.72 -78.607
-11.898 -142.64 -79.245
-11.934 -142.62 -79.41
-11.929 -142.6 -79.678
-11.94 -142.59 -80.096
-11.975 -142.56 -80.494
-11.995 -142.52 -80.852
-12.05 -142.45 -81.583
-12.075 -142.39 -82.097
-12.271 -142.19 -83.56
-12.28 -142.16 -83.761
-12.277 -142.15 -83.823
-12.275 -142.14 -83.856
-12.261 -142.1 -84.008
-12.248 -142.06 -84.114
-12.234 -142.02 -84.22
-12.354 -141.9 -85.406
-12.384 -141.84 -85.857
-12.456 -141.67 -86.824
-12.469 -141.64 -86.971
-12.475 -141.61 -87.256
-12.476 -141.6 -87.43
-12.571 -141.54 -87.963
-12.596 -141.48 -88.274
-12.613 -141.44 -88.495
-12.622 -141.43 -88.594
-12.622 -141.43 -88.595
-12.69 -141.26 -89.502
-12.693 -141.26 -89.53
-12.818 -141.19 -90.195
-12.819 -140.97 -91.413
-12.804 -140.83 -91.976
-12.725 -140.58 -92.774
-12.613 -140.34 -93.471
-12.608 -140.33 -93.505
-12.606 -140.33 -93.51
-12.45 -140.17 -93.943
-12.361 -140.12 -94.456
-12.33 -140.12 -94.678
-12.293 -140.14 -94.925
-12.249 -140.16 -95.179
-12.198 -140.17 -95.417
-12.154 -140.15 -95.62
-12.038 -140.17 -95.936
-12.031 -140.18 -95.964
-11.844 -140.32 -97.692
-11.697 -140.27 -98.505
-11.585 -140.17 -99.126
-11.304 -139.95 -100.53
-11.164 -139.81 -101.04
-11.124 -139.77 -101.2
-11.092 -139.7 -101.43
-10.966 -139.61 -101.85
-10.95 -139.61 -101.97
-10.948 -139.6 -102.03
-10.853 -139.5 -102.52
-10.849 -139.49 -102.54
-10.826 -139.48 -102.62
-10.769 -139.45 -102.81
-10.729 -139.42 -102.95
-10.632 -139.37 -103.27
-10.589 -139.34 -103.42
-10.438 -139.27 -103.9
-10.322 -139.23 -104.18
-10.229 -139.2 -104.41
-10.13 -139.18 -104.68
-9.8808 -139.14 -105.33
-9.8561 -139.14 -105.4
-9.8192 -139.15 -105.5
-9.7622 -139.16 -105.65
-9.5811 -139.22 -106.04
-9.5535 -139.23 -106.1
-9.3617 -139.24 -106.46
-8.9238 -139.1 -107.61
-8.7698 -139.07 -108.02
-8.7026 -139.06 -108.22
-7.9829 -138.91 -109.25
-7.7315 -138.88 -109.64
-7.6852 -138.87 -109.71
-7.6848 -138.87 -109.71
-7.4426 -138.8 -110.04
-7.3968 -138.78 -110.11
-7.3385 -138.77 -110.19
-6.9662 -138.7 -110.57
-6.9054 -138.69 -110.63
-6.9051 -138.69 -110.63
-6.2812 -138.23 -111.48
-6.1577 -138.13 -111.65
-6.1488 -138.12 -111.66
-6.1067 -138.09 -111.72
-6.0985 -138.08 -111.73
-6.0985 -138.08 -111.73
-5.8165 -137.8 -112.09
-5.4076 -137.6 -112.56
-4.78 -137.41 -113.26
-4.6432 -137.36 -113.42
-4.5308 -137.31 -113.57
-4.0577 -137.27 -114.12
-3.9966 -137.27 -114.19
-3.8376 -137.24 -114.39
-3.2421 -137.23 -115.6
-2.6925 -137.06 -117.04
-2.5195 -137.03 -117.5
-2.0573 -137.09 -118.71
-2.0069 -137.11 -118.91
-1.9508 -137.13 -119.16
-1.9504 -137.13 -119.16
-1.7874 -136.97 -121.06
-1.7895 -136.97 -121.11
-1.794 -136.99 -121.19
-1.8013 -136.99 -121.27
-1.7642 -136.98 -121.47
-1.7562 -136.98 -121.51
-1.727 -136.97 -121.65
-1.6614 -136.95 -121.91
-1.5431 -136.93 -122.32
-1.3079 -136.94 -123.18
-1.2694 -136.96 -123.29
-1.2683 -136.96 -123.3
-1.2546 -136.95 -123.33
-1.1885 -136.95 -123.51
-1.1819 -136.95 -123.53
-1.1692 -136.96 -123.58
-1.055 -136.96 -123.95
-0.91935 -136.98 -124.39
-0.81345 -136.98 -124.77
-0.81192 -136.98 -124.77
-0.69151 -136.93 -125.13
-0.67469 -136.92 -125.18
-0.45896 -136.83 -125.72
-0.44659 -136.82 -125.76
-0.22442 -136.73 -126.38
-0.21459 -136.72 -126.41
-0.02351 -136.61 -126.81
0.11169 -136.49 -127.2
0.35454 -136.38 -128.06
0.40538 -136.35 -128.24
0.43412 -136.33 -128.34
0.76169 -136.27 -128.93
0.8616 -136.25 -129.11
1.0362 -136.22 -129.4
1.2434 -136.16 -129.86
1.2892 -136.15 -129.98
1.3422 -136.14 -130.08
1.437 -136.13 -130.23
1.5017 -136.12 -130.33
1.7146 -136.06 -130.66
2.2709 -135.89 -131.59
2.3204 -135.87 -131.68
2.5807 -135.79 -132.2
3.0691 -135.71 -132.77
3.1948 -135.7 -132.92
3.5677 -135.67 -133.36
3.928 -135.61 -133.93
4.127 -135.6 -134.24
4.5442 -135.57 -134.96
5.0327 -135.56 -135.54
5.1708 -135.55 -135.66
5.3805 -135.54 -135.85
5.3814 -135.54 -135.86
5.4229 -135.54 -135.89
5.4236 -135.54 -135.89
5.4488 -135.54 -135.92
5.7324 -135.56 -136.19
5.7713 -135.56 -136.22
5.772 -135.56 -136.22
5.8483 -135.57 -136.29
5.9464 -135.58 -136.39
6.0644 -135.6 -136.54
6.3391 -135.59 -136.78
6.7783 -135.56 -137.11
6.9529 -135.56 -137.23
6.9772 -135.56 -137.25
7.0779 -135.56 -137.32
7.0938 -135.56 -137.33
7.2481 -135.56 -137.47
7.6438 -135.58 -137.8
8.1846 -135.57 -138.25
8.4285 -135.6 -138.49
8.4329 -135.6 -138.5
8.8841 -135.71 -139.12
8.9867 -135.74 -139.25
9.3587 -135.77 -139.47
9.5974 -135.77 -139.59
9.7281 -135.75 -139.67
9.7378 -135.75 -139.68
9.7395 -135.75 -139.68
10.28 -135.66 -140.04
10.768 -135.67 -140.41
10.785 -135.67 -140.42
11.035 -135.69 -140.62
11.304 -135.76 -140.9
11.473 -135.77 -141.02
12.331 -135.93 -141.55
12.495 -135.94 -141.64
12.633 -135.95 -141.72
12.684 -135.95 -141.74
12.765 -135.96 -141.78
13.419 -136.01 -142.11
13.583 -136.02 -142.17
13.653 -136.03 -142.19
13.712 -136.03 -142.21
13.743 -136.03 -142.22
14.068 -136.06 -142.32
14.454 -136.09 -142.5
14.516 -136.1 -142.53
14.97 -136.12 -142.77
15.025 -136.12 -142.8
15.329 -136.15 -142.95
15.362 -136.15 -142.96
15.526 -136.17 -143.03
15.571 -136.17 -143.04
15.639 -136.17 -143.07
16.17 -136.21 -143.29
16.404 -136.24 -143.37
16.507 -136.26 -143.4
16.508 -136.26 -143.4
16.547 -136.26 -143.41
16.779 -136.3 -143.49
17.264 -136.36 -143.65
17.271 -136.36 -143.65
17.48 -136.39 -143.79
17.527 -136.39 -143.82
17.595 -136.38 -143.86
17.879 -136.32 -144.03
18.112 -136.3 -144.15
18.263 -136.3 -144.22
18.393 -136.31 -144.27
18.409 -136.31 -144.28
19.077 -136.32 -144.6
19.792 -136.37 -144.92
19.83 -136.37 -144.94
20.008 -136.38 -145.03
20.094 -136.38 -145.08
20.184 -136.37 -145.15
20.257 -136.37 -145.21
20.334 -136.36 -145.28
20.644 -136.29 -145.67
20.719 -136.27 -145.76
20.841 -136.24 -145.9
20.851 -136.24 -145.91
20.867 -136.24 -145.92
21.078 -136.19 -146.08
21.09 -136.19 -146.09
21.09 -136.19 -146.09
21.645 -136.18 -146.55
21.908 -136.15 -146.84
22.349 -136.03 -147.44
22.493 -136 -147.65
22.503 -136 -147.67
22.603 -135.98 -147.8
22.771 -135.92 -148.02
22.818 -135.91 -148.07
23.103 -135.82 -148.42
23.498 -135.73 -148.87
23.536 -135.72 -148.91
23.722 -135.67 -149.12
23.87 -135.62 -149.3
23.98 -135.58 -149.44
23.985 -135.58 -149.45
24.226 -135.53 -149.7
24.487 -135.49 -149.98
24.719 -135.46 -150.23
25.018 -135.38 -150.49
25.227 -135.31 -150.65
25.299 -135.27 -150.71
25.299 -135.27 -150.71
25.422 -135.21 -150.82
25.598 -135.12 -150.96
26.025 -134.93 -151.27
26.034 -134.92 -151.28
26.202 -134.74 -151.62
26.3 -134.68 -151.74
26.528 -134.52 -151.97
26.658 -134.39 -152.14
26.77 -134.29 -152.31
27.105 -134 -152.8
27.295 -133.81 -153.1
27.422 -133.71 -153.26
27.491 -133.66 -153.34
28.217 -133.23 -153.86
28.348 -133.17 -153.95
28.374 -133.16 -153.96
28.543 -133.1 -154.16
28.766 -132.95 -154.45
28.792 -132.94 -154.5
28.792 -132.93 -154.5
28.808 -132.92 -154.52
28.808 -132.92 -154.53
28.918 -132.85 -154.71
28.918 -132.85 -154.71
29.12 -132.69 -155.17
29.123 -132.69 -155.18
29.184 -132.65 -155.28
29.227 -132.64 -155.35
29.229 -132.64 -155.35
29.483 -132.54 -155.75
29.517 -132.53 -155.8
29.769 -132.49 -156.1
29.772 -132.49 -156.1
29.772 -132.49 -156.1
30.09 -132.43 -156.49
30.146 -132.43 -156.56
30.245 -132.42 -156.68
30.434 -132.41 -156.92
30.435 -132.41 -156.92
30.54 -132.39 -157.05
30.541 -132.39 -157.05
30.706 -132.38 -157.25
30.773 -132.37 -157.34
30.88 -132.36 -157.5
30.881 -132.36 -157.5
30.957 -132.34 -157.62
30.968 -132.34 -157.64
31.801 -132.34 -158.51
31.857 -132.34 -158.56
32.257 -132.37 -158.82
32.385 -132.36 -158.93
32.573 -132.33 -159.12
32.896 -132.28 -159.53
32.975 -132.27 -159.63
32.978 -132.27 -159.64
33.032 -132.24 -159.73
33.195 -132.17 -160
33.356 -132.08 -160.28
33.413 -132.06 -160.37
33.471 -132.03 -160.44
33.546 -131.99 -160.56
33.638 -131.94 -160.71
33.682 -131.9 -160.81
33.737 -131.87 -160.92
33.799 -131.84 -161.05
34.055 -131.75 -161.51
34.252 -131.7 -161.88
34.397 -131.68 -162.13
34.646 -131.63 -162.47
34.705 -131.59 -162.54
34.87 -131.51 -162.77
34.878 -131.51 -162.78
34.914 -131.5 -162.82
35.235 -131.4 -163.28
35.318 -131.39 -163.49
35.447 -131.39 -163.77
35.621 -131.41 -164.15
35.849 -131.45 -164.59
36.075 -131.45 -165.03
36.121 -131.45 -165.1
36.175 -131.45 -165.17
36.231 -131.45 -165.24
36.721 -131.51 -165.89
37.062 -131.61 -166.35
37.115 -131.63 -166.42
37.278 -131.68 -166.65
37.443 -131.79 -166.94
37.497 -131.81 -167.07
37.506 -131.81 -167.09
37.513 -131.81 -167.11
37.548 -131.83 -167.2
37.602 -131.86 -167.39
37.626 -131.89 -167.47
37.741 -132.02 -167.88
37.747 -132.03 -167.91
37.767 -132.1 -168.09
37.893 -132.35 -168.54
37.898 -132.36 -168.56
37.917 -132.48 -168.72
37.937 -132.55 -168.8
37.955 -132.61 -168.86
37.986 -132.73 -168.98
38.021 -132.83 -169.1
38.12 -133.02 -169.35
38.161 -133.14 -169.53
38.238 -133.48 -169.79
38.256 -133.57 -169.85
38.256 -133.57 -169.85
38.279 -133.75 -169.97
38.289 -133.78 -170
38.357 -134 -170.15
38.373 -134.06 -170.21
38.393 -134.16 -170.3
38.393 -134.17 -170.3
38.407 -134.29 -170.41
38.407 -134.3 -170.41
38.428 -134.43 -170.53
38.451 -134.53 -170.61
38.467 -134.58 -170.66
38.519 -134.69 -170.79
38.531 -134.71 -170.82
38.536 -134.72 -170.83
38.605 -135.06 -171.14
38.639 -135.43 -171.43
38.632 -135.54 -171.55
38.632 -135.54 -171.55
38.632 -135.54 -171.55
38.637 -135.65 -171.75
[...]
POINT_DATA 85714
SCALARS radius double 
LOOKUP_TABLE default 
9.4266
9.4449
9.4081
9.5032
9.5143
9.5195
9.5365
9.5369
9.5091
9.4949
9.4782
9.4699
9.445
9.4072
9.3353
9.3207
9.2613
9.2256
9.2043
9.1905
9.0676
9.0358
8.9426
8.8319
8.7942
8.7699
8.6125
8.5805
8.5861
8.5825
8.5436
8.4974
8.449
8.3443
8.308
8.2861
8.2863
8.2365
8.1651
8.086
8.0245
7.9303
7.8926
7.8246
7.8176
7.8128
7.8099
7.7952
7.782
7.7683
7.6777
7.672
7.7281
7.7439
7.752
7.7506
7.6779
7.6371
7.6129
7.6021
7.602
7.5532
7.5528
7.5327
7.4747
7.4985
7.5861
7.7141
7.721
7.722
7.7738
7.8512
7.8923
7.9308
7.975
8.0213
8.0479
8.0491
8.0493
8.0593
8.1428
8.2094
8.4988
8.6437
8.6989
8.7536
8.7961
8.8168
8.8236
8.8652
8.8667
8.8721
8.8784
8.8823
8.8948
8.8994
8.9225
8.9258
8.937
8.9525
9.0139
9.0194
9.0271
9.0378
9.0301
9.0294
9.0186
8.8433
8.8204
8.8105
8.5184
8.4611
8.4512
8.4511
8.3933
8.3851
8.375
8.2583
8.2404
8.2403
7.7587
7.6716
7.6654
7.6364
7.6301
7.6301
7.4179
7.1615
6.8667
6.8138
6.7643
6.6212
6.6092
6.5708
6.2145
6.0744
6.0956
6.3093
6.3414
6.3876
6.3881
6.8717
6.8833
6.8987
6.9173
6.9114
6.9104
6.9088
6.8999
6.8936
6.9347
6.9456
6.9458
6.943
6.9201
6.9169
6.9097
6.8523
6.8017
6.7799
6.7795
6.7425
6.7383
6.695
6.6933
6.6883
6.6887
6.6639
6.6256
6.5744
6.5721
6.5736
6.4821
6.4541
6.4303
6.3674
6.3553
6.3367
6.2955
6.2731
6.1976
6.0996
6.0971
6.0672
5.9277
5.9044
5.8586
5.7996
5.7709
5.7895
5.7811
5.7693
5.7558
5.7557
5.7541
5.7541
5.7532
5.7333
5.7312
5.7312
5.7287
5.7244
5.7136
5.6755
5.6325
5.6225
5.6204
5.612
5.6103
5.5939
5.5721
5.5986
5.6156
5.616
5.679
5.701
5.773
5.8258
5.8326
5.8325
5.8325
5.8408
5.8711
5.8722
5.8954
5.8942
5.8919
5.8828
5.8808
5.8802
5.8797
5.879
5.8998
5.8968
5.8952
5.8935
5.8925
5.8853
5.8837
5.885
5.8916
5.8939
5.8977
5.8969
5.8917
5.8903
5.8877
5.8816
5.8749
5.8713
5.8713
5.8689
5.8581
5.8492
5.8486
5.83
5.8231
5.8115
5.7278
5.6696
5.635
5.6041
5.5995
5.4372
5.3747
5.3727
5.3673
5.3666
5.3549
5.3447
5.3296
5.2355
5.2146
5.1888
5.1873
5.183
5.13
5.126
5.126
4.9524
4.8715
4.7782
4.7596
4.7572
4.7304
4.6707
4.6553
4.5773
4.5033
4.4961
4.4705
4.4449
4.43
4.4296
4.4207
4.4291
4.4559
4.4621
4.4609
4.454
4.454
4.444
4.4378
4.4589
4.4596
4.4854
4.5018
4.5004
4.5036
4.492
4.5077
4.5418
4.5615
4.5746
4.6645
4.6963
4.7016
4.671
4.5999
4.5878
4.5878
4.5807
4.5806
4.5368
4.5366
4.4429
4.4411
4.4168
4.3988
4.3979
4.3053
4.2972
4.2346
4.2339
4.2339
4.1742
4.1619
4.1378
4.0937
4.0935
4.0731
4.0728
4.0545
4.0444
4.0256
4.0255
4.0149
4.0137
4.0421
4.0506
4.0943
4.0938
4.0873
4.0781
4.0807
4.0811
4.0675
4.042
4.0176
4.0097
4.0034
3.9886
3.9717
3.9578
3.9443
3.9306
3.9032
3.9206
3.9494
3.9773
3.982
3.9675
3.9668
3.9659
3.9553
3.9289
3.8823
3.8465
3.8414
3.8566
3.8574
3.8543
3.8516
3.8948
3.9649
3.9794
4.0257
4.0562
4.0498
4.048
4.0473
4.0443
4.0282
4.0191
3.9671
3.9631
3.9355
3.8373
3.8338
3.7889
3.7591
3.7294
3.6734
3.634
3.5848
3.5421
3.3871
3.3535
3.3529
3.2811
3.2663
3.1883
3.1606
3.1145
3.1141
3.0643
3.0641
3.0179
2.9812
2.9627
2.9161
2.9068
2.9027
2.7333
2.6017
2.5486
2.5454
2.5454
2.4415
2.4376
2.3485
2.2906
2.2741
2.2027
2.2025
2.0847
2.0734
2.0213
2.0087
1.9947
2.0058
2.0117
2.0128
2.0173
2.0302
2.0307
2.0316
2.0297
2.0412
2.0413
2.0565
2.0568
2.057
2.0605
2.0648
2.073
2.1174
2.1242
2.1659
2.1933
2.2098
2.2279
2.2485
2.2486
2.2485
2.2465
2.2468
2.2468
2.2352
2.2067
2.2047
2.2019
2.1999
2.1985
2.2177
2.1988
2.1833
2.1718
2.1173
2.1037
2.1036
2.0953
2.016
2.0149
2.0149
2.0533
2.0332
2.0269
2.0079
2.0073
1.9924
1.9405
1.8515
1.8453
1.8184
1.8154
1.8108
1.8156
1.8394
1.854
1.8537
1.8701
1.8471
1.8031
1.8006
1.7799
1.7779
1.7802
1.7731
1.7721
1.7628
1.7618
1.7548
1.7483
1.7463
1.7456
1.7793
1.834
1.8685
1.9163
1.9236
1.9265
1.9286
1.925
1.8845
1.8678
1.8677
1.7885
1.788
1.7802
1.7706
1.7697
1.7669
1.7587
1.7674
1.7506
1.7353
1.7257
1.6656
1.5943
1.5774
1.5762
1.5823
1.5831
1.5859
1.5859
1.5781
1.5621
1.561
1.5596
1.5526
1.552
1.546
1.5458
1.5367
1.5223
1.5
1.4622
1.4327
1.3616
1.3419
1.3322
1.3092
1.297
1.2916
1.2673
1.2475
1.2405
1.2247
1.2245
1.2093
1.2025
1.1797
1.1756
1.0411
0.96507
0.94035
0.91365
0.90826
0.84219
0.82177
0.79661
0.7729
0.76667
0.76685
0.79
0.82643
0.86337
0.97208
0.9736
0.9709
0.96834
0.98217
0.98211
0.99165
1.0125
1.0074
0.98571
0.95866
0.90821
0.90257
0.90028
0.83773
0.83131
0.83076
0.7929
0.78158
0.78149
0.76245
0.73987
0.73405
0.73092
0.71841
0.71075
0.69399
0.69424
0.75127
0.80902
0.84995
0.85273
0.79497
0.68458
0.6372
0.57705
0.52041
0.51823
0.4965
0.47385
0.45422
0.42859
0.40643
0.3926
0.39173
4.0485
4.0661
4.067
4.0655
4.0558
4.0116
4.0095
4.0073
4.0058
4.0022
4.0646
4.0623
4.0261
4.008
4.0063
3.9765
3.9609
3.9607
3.9511
3.9509
3.9388
3.9387
3.9365
3.9365
3.9134
3.9019
3.8707
3.8704
3.8358
3.8339
3.808
3.8062
3.789
3.789
3.769
3.7656
3.7626
3.7466
3.6751
3.6592
3.6273
3.6196
3.6196
3.6123
3.6117
3.5885
3.5593
3.527
3.5266
3.512
3.3506
2.9466
2.9131
2.8815
2.8354
2.8351
2.6448
2.644
2.6215
2.614
2.506
2.4056
2.3851
2.3821
2.376
2.3652
2.3646
2.3946
2.4611
2.4631
2.4703
2.4841
2.5221
2.5456
2.573
2.6378
2.6632
2.6855
2.7007
2.7007
2.7175
2.718
2.7147
2.7147
2.7195
2.7695
2.7764
2.7759
2.7631
2.6806
2.6489
2.6419
2.6198
2.6199
2.6199
2.6162
2.6014
2.5919
2.5784
2.5814
2.5758
2.5695
2.5695
2.5621
2.5613
2.5627
2.5626
2.5463
2.5267
2.5199
2.5188
2.5097
2.5116
2.528
2.5476
2.5647
2.5731
2.5733
2.574
2.5818
2.5832
2.6282
2.6849
2.6904
2.7216
2.7381
2.7548
2.7504
2.7488
2.7455
2.7444
2.7193
2.7197
2.7136
2.7068
2.6904
2.6626
2.6364
2.6242
2.6186
2.6092
2.6088
2.6021
2.598
2.5977
2.5935
2.5913
2.5906
2.5824
2.5539
2.5493
2.5409
2.5407
2.5044
2.4882
2.4827
2.4815
2.4877
2.4999
2.5004
2.5162
2.5842
2.6197
2.6284
2.5968
2.5733
2.5721
2.4977
2.4455
2.426
2.3543
2.3287
2.2344
2.221
2.2113
2.135
2.0944
2.0562
1.9985
1.9947
1.9524
1.9485
1.8922
1.863
1.8414
1.8302
1.83
1.8191
1.8078
1.8078
1.8166
1.8184
1.8154
1.8151
1.8133
1.8039
1.8037
1.7996
1.7568
1.7483
1.7416
1.7416
1.7051
1.7048
1.6943
1.6796
1.676
1.6543
1.654
1.6632
1.6836
1.685
1.6981
1.6698
1.6509
1.6503
1.6353
1.6502
1.6528
1.6659
1.6812
1.6722
1.6236
1.6189
1.5955
1.5812
1.5702
1.5698
1.5664
1.5675
1.5862
1.6027
1.6029
1.5222
1.4522
1.4026
1.3912
1.381
1.2982
1.2953
1.2506
1.208
1.1892
1.1829
1.179
1.1992
1.2094
1.3097
1.3476
1.371
1.3743
1.3652
1.3342
1.3287
1.3045
1.298
1.2926
1.2726
1.2547
1.2349
1.2346
1.2001
1.1998
1.1843
1.1835
1.1866
1.2037
1.2043
1.2067
1.2067
1.2136
1.2341
1.2341
1.2424
7.4797
7.5026
7.5422
7.6001
7.7566
7.8554
8.0535
8.0993
8.159
8.2247
8.2345
8.2377
8.2396
8.4287
8.4765
8.519
8.6744
8.7952
8.8395
8.9031
8.9056
8.9298
8.938
9.0038
9.0448
9.0995
9.2029
9.2131
9.3067
9.3083
9.3083
9.3252
9.3263
9.2923
9.2822
9.1716
9.1392
8.8991
8.8415
8.7418
8.554
8.5396
8.5142
8.49
8.3995
8.3738
8.2104
7.917
7.6944
7.1517
6.9596
6.9061
6.6922
6.6899
6.6175
6.5608
6.5435
6.4949
6.4838
6.4639
6.452
6.452
6.4125
6.3284
6.3149
6.3346
6.3974
6.4633
6.4702
6.4813
6.6129
6.7773
6.7805
6.9048
6.9699
7.0393
7.0437
7.004
7.0884
7.0703
7.0691
7.065
7.0564
7.0475
7.0203
7.0018
6.8885
6.8603
6.7722
6.7298
6.7261
6.7192
6.7144
6.7144
6.7107
6.7107
6.6783
6.6725
6.5999
6.5836
6.5835
6.5169
6.3882
6.3756
6.0948
6.0379
6.0377
5.9932
5.9745
5.964
5.9559
5.9538
5.9538
5.9483
5.9124
5.8672
5.8352
5.8139
5.8094
5.8043
5.7711
5.7377
5.7257
5.6956
5.6637
5.6541
5.6486
5.6287
5.5902
5.5856
5.5349
5.5064
5.5048
5.4714
5.4661
5.466
5.4591
5.4594
5.4581
5.4519
5.4518
5.4512
5.4494
5.4502
5.4528
5.4523
5.4476
5.4521
5.4535
5.4626
5.4803
5.5015
5.5017
5.5391
5.546
5.5648
5.5753
5.5845
5.5988
5.6087
5.6553
5.6555
5.6396
5.6282
5.6186
5.583
5.5685
5.547
5.5448
5.5094
5.4776
5.3817
5.3627
5.3245
5.31
5.3087
5.3125
5.3124
5.3079
5.2761
5.2258
5.1945
5.1519
5.106
5.0474
5.0149
5.0112
4.9339
4.9046
4.874
4.8571
4.8533
4.8517
4.8454
4.8162
4.7574
4.7647
4.764
4.7674
4.7665
4.7667
4.7661
4.7653
4.7475
4.7431
4.7046
4.6475
4.6453
4.6353
4.6371
4.6436
4.6465
4.6497
4.6473
4.6439
4.6432
4.6373
4.6365
4.6318
4.6152
4.6134
4.6131
4.6112
4.6098
4.6011
4.601
4.5911
4.5882
4.5625
4.4914
4.4118
4.403
4.3991
4.4515
4.4547
4.4622
4.4641
4.474
4.4805
4.4858
4.4909
4.4909
4.4936
4.4861
4.486
4.4828
4.4827
4.4656
4.4623
4.4438
4.4502
4.3949
4.3421
4.2807
4.1178
4.1008
4.0554
3.9732
3.9548
3.9545
3.9318
3.9317
3.8291
3.7721
3.7707
3.7321
3.7307
3.6319
3.6122
3.6121
3.6006
3.6002
3.563
3.5625
3.5113
3.4972
3.4833
3.4152
3.3974
3.3973
3.3928
3.3599
3.3532
3.3444
3.1407
3.1171
3.0212
3.0066
2.984
2.9231
2.9128
2.819
2.8128
2.809
2.79
2.7898
2.7073
2.6891
2.6849
2.6826
2.6808
2.682
2.6833
2.7008
2.7099
2.71
2.7097
2.7129
2.7147
2.7321
2.7728
2.7765
2.7765
2.7793
2.7786
2.7786
2.7793
2.7787
2.7625
2.7271
2.7166
2.7169
2.7178
2.7682
2.7683
2.768
2.7681
2.7772
2.8266
2.868
2.8681
2.8701
2.8658
2.8657
2.8319
2.7979
2.7885
2.7884
2.7853
2.7852
2.7824
2.7824
2.7701
2.75
2.7448
2.7377
2.7311
2.7116
2.69
2.6781
2.668
2.6642
2.6601
2.6557
2.6396
2.6332
2.6332
2.6281
2.6224
2.6154
2.5988
2.594
2.5834
2.5827
2.5815
2.5754
2.5736
2.5207
2.5202
2.5202
2.5131
2.5099
2.5022
2.4958
2.4899
2.4979
2.5104
2.5123
2.519
2.5181
2.4863
2.4857
2.4819
2.4619
2.4217
2.4129
2.4105
2.4018
2.3952
2.348
2.3094
2.3081
2.2968
2.2649
2.2394
2.1986
2.1262
2.0588
2.0459
2.0404
2.0402
2.0009
2.0005
1.9893
1.988
1.9591
1.9466
1.9425
1.9352
1.9215
1.9014
1.8755
1.8685
1.8641
1.864
1.8482
1.8101
1.7753
1.7743
1.7578
1.755
1.7397
1.7342
1.7344
1.7309
1.7415
1.7415
1.7138
1.7134
1.7157
1.7154
1.7263
1.7323
1.7354
1.7381
1.764
1.8098
1.8162
1.8245
1.8386
1.847
1.8606
1.9048
1.9269
1.9723
1.9857
1.9858
2.1092
2.1586
2.2715
2.2926
2.3029
2.3172
2.3286
2.311
2.3104
2.2932
2.2662
2.2567
2.2434
2.2278
2.2204
2.2094
2.2061
2.2029
2.2029
2.2048
2.2062
2.2082
2.2079
2.2287
2.2297
2.2323
2.2466
2.2484
2.2519
2.2628
2.2887
2.2855
2.2809
2.2795
2.2795
2.2462
2.246
2.2314
2.2314
2.213
2.2127
2.2196
2.2202
2.2327
2.2605
2.2695
2.2696
2.2716
2.2654
2.2609
2.2603
2.2523
2.2137
2.2111
2.2072
2.1906
2.1876
2.1826
2.1823
2.1629
2.1602
2.1376
2.1364
2.1006
2.1
2.0707
2.0705
2.0515
2.0466
2.041
2.0357
2.0269
2.0205
2.0205
2.0128
1.9973
1.9948
1.9893
1.9803
1.9719
1.9671
1.9635
1.9613
1.9421
1.9407
1.9408
1.9409
1.9393
1.9495
1.9501
1.9501
1.9581
1.9597
1.9949
2.0155
2.0122
2.0087
2.0049
1.995
1.9912
2.0041
2.0074
2.0076
1.9999
1.9893
1.9852
1.9793
1.9736
1.9703
1.969
1.9415
1.9399
1.9442
1.9618
2.004
2.0077
2.0097
2.0146
2.0092
2.0092
1.9889
1.9877
1.9757
1.9608
1.9606
1.9558
1.9554
1.9502
1.9502
1.9435
1.9188
1.9189
1.9146
1.9005
1.9004
1.8992
1.8992
1.8722
1.859
1.859
1.859
1.8637
1.8619
1.8512
1.8289
1.8283
1.8267
1.8259
1.8361
1.8371
1.8309
1.8169
1.7936
1.7878
1.7602
1.7474
1.7367
1.722
1.7164
1.7047
1.6654
1.6608
1.6033
1.5688
1.5683
1.5512
1.551
1.5159
1.5157
1.4983
1.4874
1.3762
1.3758
1.3532
1.3387
1.3235
1.2634
1.2488
1.2078
1.2059
1.1853
1.1789
1.1595
1.13
1.1151
1.0608
1.0447
1.0443
1.0293
0.91021
0.90995
0.86792
0.88404
0.98054
0.98563
1.046
1.0775
1.0787
1.092
1.1048
1.1049
1.1298
1.1304
1.1497
1.1652
1.1757
1.1706
1.1796
1.1812
1.1827
1.2142
1.2134
1.2114
1.2089
1.1598
1.135
1.1339
1.1381
1.1425
1.1429
1.1487
1.1495
1.1503
1.1442
1.1436
1.1405
1.1413
1.1915
1.1936
1.246
1.2552
1.2553
1.2674
1.2738
1.2758
1.2927
1.3346
1.3516
1.3503
1.3335
1.2933
1.2589
1.2449
1.234
1.1979
1.1951
1.1796
1.1836
1.183
1.1723
1.1612
1.1386
1.1307
1.1282
1.1235
1.0897
1.0516
1.0489
1.0498
1.0418
1.0401
1.0385
1.0439
1.1257
1.1458
1.1545
1.1719
1.1736
1.1736
1.1738
1.1616
1.1775
1.1795
1.1814
1.1975
1.1982
1.2284
1.25
1.2778
1.2826
1.2822
1.2804
1.279
1.266
1.2599
1.2517
1.2456
1.231
1.2388
1.2145
1.2083
1.2045
1.2696
1.3217
1.3166
1.3022
1.1957
1.1824
1.1763
1.1622
1.1358
1.1379
1.1273
1.1311
1.1347
1.1416
1.1438
1.1538
1.1488
1.1608
1.1614
7.09
7.0918
7.0912
7.0787
7.0073
6.9863
6.9862
6.9437
6.9311
6.9309
6.9066
6.881
6.8362
6.7842
6.7805
6.7804
6.7243
6.6653
6.633
6.6329
6.6
6.5834
6.5429
6.4562
6.4312
6.3802
6.38
6.3375
6.3269
6.3268
6.2234
6.1201
6.1165
6.1164
6.079
6.0225
6.0094
5.9667
5.9623
5.929
5.8828
5.8542
5.8266
5.7726
5.7724
5.7593
5.7585
5.708
5.6953
5.6701
5.67
5.5861
5.4907
5.2562
5.0648
5.0403
5.0073
4.9906
4.9628
4.9181
4.7667
4.7642
4.6475
4.5995
4.4768
4.4679
4.3892
4.386
4.3468
4.2857
4.2744
4.2333
4.2033
4.2002
4.1491
4.128
4.1101
4.0681
4.0626
4.0407
3.9767
3.9753
3.929
3.7657
3.7196
3.7148
3.7105
3.7104
3.7066
3.7065
3.6301
3.617
3.5841
3.5783
3.5782
3.572
3.566
3.5631
3.5617
3.5406
3.5256
3.5222
3.49
3.4885
3.4626
3.447
3.4206
3.4085
3.2199
3.1623
3.1454
3.1643
3.15
3.1516
3.1517
3.1526
3.1526
3.1186
3.1327
3.2751
3.3247
3.2987
3.2828
3.2824
3.277
3.2292
3.1432
3.1096
3.0461
3.0455
2.8939
2.8165
2.6988
2.6036
2.451
2.4106
2.3965
2.3606
2.3567
2.2387
2.2198
2.2187
2.2018
2.1785
2.1639
2.1476
2.1147
2.0865
2.0444
2.0094
2.0046
1.9788
1.9193
1.8862
1.8673
1.8513
1.772
1.7711
1.716
1.6803
1.6756
1.64
1.64
1.6383
1.6349
1.6449
1.6551
1.6922
1.7492
1.7638
1.8
1.8457
1.8893
1.905
1.9981
2.0245
2.0261
2.0353
2.0333
2.0259
2.0258
2.0245
2.0244
2.0049
1.9896
1.9896
1.9642
1.963
1.961
1.9458
1.8569
1.8566
1.8407
1.8405
1.8214
1.8212
1.8026
1.8024
1.7974
1.806
1.8439
1.8991
1.9787
1.9943
1.9969
2.035
2.0619
2.0803
2.0785
2.058
2.053
2.0446
2.0544
2.0542
2.0522
2.0092
1.9823
1.977
1.9556
1.9431
1.9415
1.9326
1.9307
1.9307
1.9166
1.884
1.8782
1.8767
1.8697
1.8463
1.8288
1.8275
1.8274
1.826
1.826
1.8445
1.834
1.7986
1.761
1.7338
1.6771
1.6737
1.6645
1.6542
1.6438
1.6331
1.6298
1.625
1.6145
1.6141
1.6129
1.598
1.5946
1.5946
1.6036
1.6608
1.689
1.7057
1.7107
1.7161
1.7303
1.7373
1.7875
1.7951
1.7952
1.7959
1.7836
1.7797
1.7505
1.7508
1.7515
1.7516
1.753
1.7626
1.7747
1.7755
1.7646
1.745
1.7315
1.7467
1.748
1.7819
1.8114
1.8093
1.7905
1.7552
1.7422
1.6437
1.5873
1.5818
1.5282
1.5249
1.5247
1.502
1.4827
1.4148
1.4129
1.3954
1.3178
1.2935
1.2881
1.2569
1.2546
1.2346
1.2333
1.2245
1.1673
1.1636
1.1494
1.1494
1.134
1.134
1.12
1.1033
1.1073
1.1104
1.1104
1.1141
1.1141
1.1353
1.1377
1.1616
1.1643
1.1665
1.1627
1.1542
1.1493
1.1462
1.1466
1.1464
1.1362
1.1425
1.1435
1.1431
1.1405
1.122
1.1335
1.1346
1.1575
1.1577
1.1579
1.1547
1.1527
1.152
1.1483
1.143
1.1222
1.1043
1.0959
1.0813
1.0631
1.0373
1.036
1.0185
1.0159
1.0293
1.0421
1.1149
1.1194
1.1165
1.1225
1.1226
1.1029
1.0363
1.0162
0.98284
0.98174
0.90273
0.90177
0.89715
0.86257
0.84643
0.82724
0.80015
0.79967
0.79021
0.82418
0.82631
0.82722
0.81103
0.79533
0.77464
0.77543
0.77392
0.78021
0.79564
0.80433
0.80628
0.8067
0.83095
0.87336
0.87622
0.89301
0.89661
0.89828
0.89961
0.89964
0.90913
0.90925
0.95893
0.97772
0.99914
1.0058
1.0327
1.0558
1.0791
1.1113
1.1167
1.1169
1.0852
1.0363
1.0222
1.022
0.97349
0.97329
0.92641
0.92157
0.87371
0.87146
0.83011
0.81837
0.77052
0.73055
0.70141
0.69205
0.67799
0.66129
0.63368
0.6041
0.59752
0.58216
0.56073
0.55987
0.54073
0.52377
0.51719
0.51774
0.53362
0.53988
0.55771
0.55976
0.55978
4.4996
4.4648
4.4624
4.4488
4.3106
4.295
4.2871
4.2047
4.1569
4.1212
4.0539
4.0243
4.0219
3.9498
3.952
3.9536
3.9555
3.9905
3.9652
3.9605
3.9191
3.8706
3.8308
3.7982
3.7418
3.6828
3.6757
3.6512
3.5932
3.5773
3.4923
3.4232
3.3994
3.373
3.3183
3.3181
3.3134
3.2951
3.2906
3.1752
3.1557
3.1556
3.079
3.0781
3.0206
3.0203
2.9641
2.9635
2.9407
2.8499
2.837
2.7202
2.5817
2.5778
2.338
2.3339
2.1747
2.1259
2.0628
2.0295
1.9814
1.9806
1.9179
1.9174
1.8863
1.8635
1.8082
1.7997
1.7454
1.7421
1.7152
1.6664
1.655
1.6249
1.5762
1.5641
1.5256
1.5008
1.4929
1.4975
1.5134
1.563
1.5711
1.6274
1.6392
1.865
1.9328
1.9526
1.9713
1.9712
1.971
1.9416
1.8425
1.8087
1.7796
1.7283
1.5965
1.5277
1.5264
1.4958
1.4761
1.4493
1.424
1.4184
1.4219
1.4257
1.4279
1.4304
1.4417
1.478
1.5468
1.6366
1.6476
1.7046
1.7092
1.7153
1.7164
1.716
1.7107
1.7202
1.7341
1.7499
1.7763
1.7798
1.7784
1.8034
1.807
1.8088
1.8024
1.7738
1.7721
1.7661
1.6959
1.6858
1.6028
1.5997
1.5324
1.5282
1.5214
1.4961
1.5039
1.5179
1.5228
1.5301
1.5424
1.6275
1.6622
1.7687
1.7793
1.8072
1.7935
1.7497
1.7416
1.6656
1.582
1.5227
1.447
1.4211
1.4235
1.452
1.4518
1.4509
1.4436
1.4238
1.4112
1.4341
1.4383
1.4733
1.4735
1.478
1.4781
1.4521
1.4444
1.4329
1.4083
1.3776
1.3857
1.3923
1.3923
1.3921
1.3921
1.3909
1.3909
1.3887
1.3887
1.3867
1.3753
1.3713
1.3628
1.3585
1.3589
1.3587
1.3544
1.3625
1.3627
1.3621
1.3662
1.3699
1.3473
1.3041
1.2969
1.2215
1.1599
1.1582
1.1641
1.1459
1.1324
1.1311
1.0996
1.0919
1.0889
1.0832
1.0607
1.0317
1.0315
1.0278
1.0179
1.0064
1.0066
0.99327
0.98586
1.0168
1.0378
1.0674
1.0832
1.0979
1.0982
1.099
1.0966
1.0965
1.0861
1.1635
1.2255
1.3054
1.2624
1.2546
1.2364
1.1463
1.1456
1.1393
1.132
1.1209
1.0899
1.0885
1.0223
1.0147
1.0003
0.98881
0.98876
0.98858
0.95683
0.94292
0.94286
0.92554
0.87877
0.87578
0.84279
0.83115
0.78987
0.78731
0.77249
0.73592
0.71495
0.6934
0.69322
0.68631
0.68628
0.68261
0.68865
0.7257
0.73096
0.74065
0.73934
0.74115
0.74383
0.77351
0.7742
0.77445
0.83393
0.84016
0.84021
0.91464
0.93061
0.9314
0.95741
0.96508
0.9706
0.97032
0.96351
0.96268
0.95928
0.94971
0.94365
0.95052
0.95573
0.9569
0.93908
0.93395
0.87842
0.87606
0.86567
0.86212
0.86133
0.85579
0.84364
0.83233
0.79835
0.77545
0.77508
0.76083
0.75551
0.73523
0.73121
0.73121
0.73102
0.7312
1.7198
1.7165
1.7394
1.7434
1.7604
1.7598
1.7605
1.7743
1.7654
1.7658
1.7647
1.7541
1.7238
1.6867
1.685
1.683
1.6715
1.6445
1.6352
1.6324
1.6287
1.6291
1.6298
1.6288
1.6244
1.624
1.6157
1.6157
1.6034
1.5928
1.585
1.5848
1.5712
1.5491
1.5013
1.4781
1.4638
1.4626
1.4497
1.45
1.4493
1.4437
1.4452
1.4277
1.4208
1.3861
1.386
1.3827
1.3808
1.3809
1.3621
1.3572
1.3473
1.3472
1.3303
1.3297
1.3297
1.3145
1.3124
1.3099
1.3186
1.3298
1.3323
1.3372
1.316
1.2899
1.2452
1.2035
1.2013
1.1908
1.1688
1.1688
1.1686
1.156
1.1496
1.12
1.111
1.1072
1.0867
1.0861
1.0489
1.0442
1.0441
1.042
1.042
1.0376
1.0431
1.0911
1.0944
1.0944
1.1816
1.2018
1.2527
1.3146
1.3495
1.4001
1.4044
1.3961
1.3876
1.2319
1.2313
1.14
1.1389
1.1204
1.0821
1.0557
1.0552
1.0234
1.0067
1.0024
0.95497
0.96378
0.96436
0.96114
0.9421
0.94145
0.94233
0.94387
0.94767
0.94654
0.95043
0.94733
0.95297
0.94287
0.93253
0.92321
0.91055
0.84969
0.84945
0.83969
0.77963
0.72655
0.68497
0.61853
0.5943
0.57822
0.55495
0.48767
0.48941
0.48944
0.49474
0.49614
0.49791
0.53587
0.57395
0.58028
0.58117
0.60006
0.59903
0.6184
0.6224
0.64722
0.64908
0.64912
0.72402
0.76364
0.7714
0.77081
0.77016
0.76448
0.74411
0.73489
0.72657
0.71783
0.66602
0.66333
0.6432
0.64262
0.60879
0.58331
0.55654
0.54196
0.5345
0.52758
0.52484
0.52432
0.52378
0.51233
0.51154
0.51052
0.50556
0.50732
0.50275
0.49991
0.49859
0.50382
0.53813
0.53846
0.54278
0.54928
0.54941
0.53397
0.54736
0.54749
0.57822
0.6293
0.62933
0.64642
0.69869
0.70222
0.68912
0.68625
0.65784
0.63577
0.63158
0.63252
0.60966
0.60929
0.61345
0.61904
0.63245
0.64567
0.66425
0.68287
0.69085
0.69268
0.69327
0.68453
0.6731
0.65792
0.6492
0.6125
0.60158
0.5416
0.5515
0.55102
0.5516
0.59631
0.58822
0.59197
0.59944
0.59225
0.5978
0.59395
0.61274
0.61696
0.61514
0.67405
0.67913
0.71203
0.75101
0.77444
0.77311
0.76966
0.75785
0.75574
0.74303
0.73884
0.73883
0.73584
0.72617
0.69056
0.68954
0.68538
0.67566
0.67247
0.64831
0.6169
0.6105
0.64955
0.64831
0.66474
0.67903
0.67938
0.69665
0.70854
0.71159
1.8231
1.7983
1.7305
1.7256
1.7155
1.6587
1.6259
1.6054
1.5768
1.5703
1.5066
1.5014
1.4916
1.4918
1.5209
1.5436
1.5462
1.6205
1.6803
1.744
1.8101
1.8313
1.8512
1.9316
1.9563
1.9653
1.9751
1.9719
1.9312
1.9189
1.9186
1.8896
1.8485
1.8072
1.8042
1.8032
1.784
1.7808
1.7785
1.7735
1.7428
1.7371
1.7434
1.7999
1.8072
1.8107
1.8117
1.8093
1.8036
1.7741
1.7375
1.6946
1.6641
1.5896
1.5153
1.5086
1.4816
1.4515
1.4417
1.4414
1.4192
1.4187
1.4125
1.4208
1.421
1.4517
1.5237
1.5225
1.5142
1.514
1.4449
1.4337
1.4042
1.3777
1.3456
1.3451
1.3392
1.3252
1.3245
1.298
1.2908
1.3234
1.3256
1.3412
1.3679
1.37
1.3795
1.3797
1.379
1.3695
1.3044
1.259
1.22
1.215
1.1888
1.1602
1.0931
1.08
1.0826
1.165
1.1813
1.2076
1.2094
1.1993
1.1924
1.1904
1.1873
1.0873
0.92158
0.90697
0.77988
0.75393
0.71583
0.69068
0.67372
0.67231
0.66091
0.65526
0.64365
0.65099
0.70691
0.78945
0.82314
0.83183
0.83317
0.8737
0.8653
0.88101
0.92175
0.92886
0.94634
0.95336
0.95776
0.97932
0.97396
0.9515
0.91034
0.89592
0.88164
0.87835
0.87517
0.81635
0.80744
0.79216
0.79193
0.77784
0.75399