# vtk DataFile Version 3.0
vtk output
ASCII
DATASET POLYDATA
POINTS 61758 float
-8.4711 -145.25 -62.87
-12.818 -141.19 -90.195
16.779 -136.3 -143.49
26.202 -134.74 -151.62
37.115 -131.63 -166.42
41.985 -138.66 -178.88
44.274 -140.25 -190.81
45.817 -140.33 -198.64
45.328 -139.34 -201.97
39.64 -131.24 -170.6
42.92 -122.39 -187.14
43.147 -121.25 -189.31
42.313 -116.89 -198.58
40.856 -114.15 -207.82
-20.812 -140.41 -124.09
-36.198 -138.18 -153.44
-48.403 -152.08 -162.97
-50.485 -160.68 -164.26
-57.527 -182.92 -170.86
-65.058 -201.39 -183.21
-37.732 -140.53 -127.95
-41.021 -140.66 -125.64
-43.543 -143.8 -117.87
-44.799 -156.63 -105.22
-45.582 -158.27 -103.97
-45.602 -166.54 -100.55
-48.295 -173.25 -96.791
-51.13 -176.47 -96.797
-37.327 -137.85 -154.99
-42.502 -130.09 -159.75
-45.979 -121.84 -156.92
-46.901 -120.22 -156.2
-50.539 -106.71 -146.45
-55.776 -100.48 -142.69
-53.697 -111.29 -156.98
-74.724 -103.55 -155.13
-40.797 -124.31 -158.2
-36.72 -120.58 -162.7
-31.818 -119.91 -170.06
-52.967 -120.64 -151.8
-49.198 -101.44 -144.26
-48.409 -98.439 -141.72
-48.317 -158.89 -104.21
-42.121 -136.28 -163.02
-47.8 -134.84 -173.08
-55.595 -135.08 -177.53
-68.281 -140.18 -184.88
-81.163 -147.24 -191.27
-91.736 -155.49 -197.06
40.384 -130.91 -171.48
48.157 -131.85 -178.54
59.017 -136.06 -185.18
67.362 -140.44 -189.04
75.175 -145.55 -196.89
84.955 -148.45 -205.29
87.823 -148.24 -205.96
77.684 -144.18 -199.12
52.18 -116.08 -218.92
53.1 -108.49 -237.93
52.731 -103.98 -241.85
-51.981 -172.07 -175.69
-51.634 -131.83 -181.99
-52.416 -130.42 -184.86
-52.753 -123.89 -197.68
-54.703 -118.65 -211.45
-56.826 -113.78 -227.04
-60.975 -110.62 -233.71
-63.189 -111.14 -235.54
-40.273 -118.33 -212.68
-42.22 -142.43 -127.03
-61.877 -142.82 -126.39
-83.801 -145.99 -113.02
-50.661 -151.26 -127.45
-67.399 -165.33 -119.87
-42.143 -174.93 -100.73
-49.111 -160.62 -91.878
-43.204 -144.46 -113.06
-41.795 -140.91 -98.552
-39.811 -139.6 -95.768
-35.354 -139.57 -92.999
-39.132 -138.64 -91.425
-39.837 -137.22 -79.222
-46.69 -133.89 -117.45
-45.138 -125.33 -109.17
-43.625 -119.08 -100.39
-41.186 -117.58 -97.734
-40.396 -117.5 -96.888
-40.821 -116.89 -97.024
-46.119 -108.62 -83.149
-46.801 -109.08 -100.47
-71.079 -135.24 -177.68
-75.881 -131.72 -174.86
-90.189 -110.27 -174.59
-79.872 -128.56 -171.52
-78.581 -135.9 -177.92
-98.007 -142.67 -176.78
-90.28 -135.09 -182.26
-69.102 -142.25 -128.17
-88.764 -130.78 -126.74
-96.604 -149.95 -132.33
-73.103 -145.78 -185.25
-42.703 -141.36 -179.21
-49.216 -151.5 -192.37
-52.744 -152.95 -195.07
-57.546 -154.53 -198.55
-54.047 -151.77 -196
-48.701 -154.59 -194.56
-48.19 -157.28 -197.24
-47.081 -155.71 -195.09
-42.881 -142.95 -186.22
-41.438 -144.57 -195.31
-37.619 -144.97 -194.32
48.581 -142.65 -186.65
53.081 -147.38 -187.57
41.824 -116.27 -200.03
38.674 -116.67 -202.59
42.651 -104.09 -210.64
57.736 -93.539 -262.76
59.977 -110.43 -229.38
63.85 -107.26 -238.27
64.113 -105.17 -234.3
31.321 -123.05 -154.53
31.41 -122.41 -154.49
36.949 -113.04 -153.48
49.794 -97.078 -146.98
32.75 -142.73 -144.1
38.535 -144.77 -137.42
40.011 -141.06 -125.05
44.461 -136.65 -120.55
48.377 -133.45 -115.6
48.984 -131.03 -114.54
43.039 -150.3 -146.49
49.935 -157.07 -146.99
57.911 -159.61 -147.79
62.505 -158.99 -145.87
63.443 -157.27 -145.12
47.838 -128.97 -171.59
55.195 -125 -166.73
58.389 -124 -161.85
62.735 -122.19 -158.34
61.179 -125.69 -165.46
62.454 -128.2 -165.46
48.204 -110.78 -194.12
54.214 -94.79 -198.65
60.545 -102.08 -204.03
28.994 -116.82 -160.96
25.761 -112.61 -162.69
24.342 -112.13 -162.89
25.507 -111.33 -162.63
28.252 -100.22 -179.04
39.853 -104.98 -155.14
41.57 -93.955 -159.47
53.941 -122.08 -170.02
64.173 -106.85 -169.3
64.883 -112.63 -176.95
58.447 -124.34 -160.88
72.78 -125.34 -165.7
78.496 -148.62 -190.13
82.187 -149.95 -189
68.783 -165.6 -150.77
54.725 -163.58 -158.75
58.911 -169.73 -161.4
64.832 -169.92 -162.46
39.641 -148.7 -128.29
40.176 -150.4 -126.42
39.556 -156.39 -114.45
41.428 -158.05 -104.28
43.747 -157.82 -101.95
37.213 -157.78 -110.83
41.928 -159.89 -98.183
56.028 -171.43 -148.03
59.306 -177.16 -145.68
-54.369 -156.87 -164.46
-65.308 -164.57 -162.71
-75.619 -169.82 -158.9
-83.941 -172.66 -157.35
-80.28 -174.74 -155.76
-54.511 -171.91 -130.72
-55.174 -186.36 -126.78
-58.211 -193.74 -127.34
-59.977 -195.41 -126.81
-57.104 -200.64 -129.72
-46.383 -187.12 -90.985
-47.035 -201.37 -123.06
-58.292 -200.6 -144.97
-57.723 -202.45 -145.67
-63.668 -211.33 -147
-73.696 -180.81 -175.46
-76.708 -188 -179.15
-79.185 -184.34 -176.47
-81.054 -186.6 -165.91
-60.262 -200.42 -175.99
-62.734 -212.57 -176.36
-50.75 -216.72 -187.01
-55.128 -139.23 -92.559
-58.08 -134.83 -85.121
-59.099 -139.22 -90.145
-52.632 -126.46 -112.19
-59.047 -123.62 -107.35
-67.505 -115.19 -91.709
-68.558 -121.45 -102.67
-68.016 -108.42 -109.36
-32.643 -116.44 -148.79
-34.977 -99.646 -172.49
-47.513 -90.874 -145.81
-57.526 -99.662 -160.32
-56.825 -92.018 -162.09
-63.196 -93.394 -160.65
-53.905 -109.21 -191.45
-50.094 -104.29 -192.36
-55.387 -106.09 -192.33
-58.451 -97.549 -198.13
-59.028 -96.77 -189.2
-62.496 -126.68 -194.3
-71.083 -119.42 -197.28
-74.864 -116.94 -198.35
-73.479 -125.67 -204.84
-86.114 -117.09 -226.05
-87.465 -113.98 -228.75
-87.516 -117.11 -228.7
-89.443 -126 -212.15
-87.807 -101.7 -212.09
-54.176 -108.38 -241.92
-50.142 -103.82 -255.6
-51.732 -104.82 -245.92
-56.845 -109.98 -217.93
-55.684 -105.18 -219.19
-60.503 -103.05 -225.89
-60.619 -101.25 -227.53
-63.493 -99.718 -229.67
-69.996 -101.97 -249
40.978 -161.48 -122.18
41.425 -164.17 -121.88
28.33 -183.46 -104.92
24.76 -184.91 -99.515
26.618 -186.25 -104.72
35.796 -199.59 -128.31
49.451 -173.03 -114.04
51.268 -155.95 -117.72
56.284 -155.59 -109.93
32.474 -108.21 -139.3
32.182 -104.41 -132.76
34.391 -98.052 -134.41
74.701 -133.57 -186.41
78.167 -131.62 -187.83
90.406 -133.11 -185.63
57.593 -132.26 -193.37
74.994 -121.22 -205.17
63.275 -132.08 -202.75
75.291 -126.46 -221.07
86.442 -125.53 -230.63
96.866 -154.57 -216.59
47.434 -142.03 -206.13
46.562 -146.91 -205.41
46.65 -147.21 -206.9
48.227 -147.64 -205.93
68.435 -138.29 -210.45
84.759 -155.17 -192.18
57.114 -168.51 -165.04
56.314 -170.03 -167.45
58.409 -179.68 -149.5
56.878 -182.02 -150.02
62.035 -189.21 -151.46
62.394 -156.88 -201.71
69.805 -162.46 -207.78
80.91 -171.26 -214.27
75.415 -171.87 -216.92
65.672 -162.59 -202.88
68.843 -187.29 -171.87
67.913 -192.69 -173.51
74.295 -189.43 -185.54
73.089 -195.64 -177.68
66.374 -158.57 -143.97
79.503 -155.16 -141.24
69.287 -159.99 -141.67
62.352 -162.84 -115.59
69.335 -171.58 -114.82
65.97 -163.58 -113.58
61.67 -134.31 -116.64
69.203 -135.97 -112.94
67.997 -131.89 -117.19
52.471 -129.05 -108.08
40.684 -135.66 -110.75
37.36 -125.73 -97.288
42.218 -136.66 -95.974
43.495 -136.18 -93.92
30.81 -139.03 -67.701
77.701 -123.14 -225.49
-113.55 -157.29 -197.1
42.598 -102.34 -158.33
43.831 -137.49 -199.39
38.992 -138.26 -204.31
34.014 -115.55 -213.76
40.204 -117.78 -212.98
91.625 -145.93 -204.48
88.631 -147.27 -208
77.215 -142.94 -198.18
77.761 -143.59 -200.71
47.449 -99.811 -241.54
46.074 -101.34 -250.29
51.7 -149.48 -183.24
55.537 -147.12 -185.66
34.316 -116.13 -201.12
34.18 -120.63 -203.3
40.303 -97.538 -212.06
39.267 -101.61 -216.11
51.357 -92.616 -269.45
65.667 -89.018 -266.25
64.058 -111.18 -241.08
70.456 -105.19 -241.66
70.973 -101.29 -233.2
66.617 -97.41 -234.95
57.865 -96.861 -141.88
53.64 -89.399 -142.84
63.705 -122.66 -152.6
67.821 -117.95 -152.79
61.947 -130.6 -168.19
61.869 -133.07 -163.76
57.671 -88.512 -195.05
51.931 -87.326 -200.83
64.979 -102 -204.24
65.614 -96.49 -205.6
19.735 -116.29 -158.95
21.859 -116.37 -166.23
28.234 -110.16 -162.76
23.434 -106.9 -159.63
28.686 -94.271 -178.95
25.607 -99.965 -182.41
45.163 -85.736 -160.42
37.771 -87.069 -160.44
71.386 -103.44 -167.3
66.044 -99.629 -169.22
63.38 -112.08 -180.12
70.771 -110.12 -178.6
54.378 -127.79 -160.47
55.327 -123.88 -158.69
78.082 -128.05 -162.62
79.277 -120.87 -161.46
81.627 -152.76 -184.57
83.767 -149.69 -183.79
27.233 -102.45 -123.89
32.769 -108.26 -130.95
40.281 -92.274 -126.23
31.416 -91.752 -129.01
79.519 -129.47 -187.61
77.651 -131.73 -190.35
95.607 -135.94 -181.98
93.944 -127.89 -185.67
80.371 -119.5 -204.65
76.988 -116.3 -204.68
94.656 -126.65 -233.32
92.449 -119.48 -237.67
104.14 -153.16 -220.99
102.76 -162.14 -221.85
48.35 -139.4 -211.35
42.605 -140.11 -213.07
37.376 -146.29 -217.42
44.573 -150.68 -216.66
51.439 -147.61 -206.2
50.1 -150.04 -207.66
69.533 -139.87 -214.34
65.512 -138.41 -212.69
87.332 -161.03 -189.95
93.307 -158.06 -189.52
89.369 -184.09 -221.82
88.846 -178.43 -212.49
73.061 -174.06 -222.59
76.594 -185.58 -222.02
65.265 -164.33 -203.09
67.692 -162.49 -202.83
78.967 -119.35 -225.47
76.995 -124.7 -230.53
43.428 -102.8 -161.47
45.732 -102.67 -158.2
45.342 -134.12 -198.32
44.435 -137.35 -197.24
35.219 -136.57 -203.87
34.276 -138.98 -203.94
30.47 -118.89 -219.07
29.502 -113.79 -216.92
42.814 -119.72 -214.05
42.028 -117.93 -216.94
94.374 -142.11 -205.02
95.687 -146.43 -203.09
87.418 -145.33 -210.87
88.691 -148.93 -210.55
77.503 -143.01 -196.34
74.533 -142.08 -197.65
76.237 -144.43 -202.39
79.196 -143 -201.83
46.457 -93.126 -240.55
43.672 -100.95 -239.62
39.148 -101.75 -251.13
41.325 -107.49 -254.16
47.486 -148.06 -181.01
52.37 -149.54 -180.11
56.493 -144.5 -184.88
58.129 -149.08 -185.92
33.377 -113.45 -200.21
33.44 -116.81 -197.51
28.25 -122.84 -203.45
32.26 -123.66 -201.01
39.526 -94.651 -210.61
36.814 -93.086 -214.23
34.201 -98.922 -218.44
38.868 -102.36 -219.12
49.737 -88.516 -276.53
44.425 -93.648 -271.01
69.638 -85.4 -274.21
73.65 -88.629 -266.27
60.941 -113.79 -243.27
62.993 -114.9 -239.89
74.403 -101.65 -244.22
73.685 -106.07 -245.33
75.644 -100.39 -230.91
76.476 -96.043 -232.36
68.244 -91.637 -232.55
65.743 -91.685 -236.34
61.57 -99.174 -137.35
64.74 -94.091 -138.22
52.655 -83.789 -140.88
58.719 -84.813 -142.15
64.737 -125.17 -150.8
61.107 -121.99 -148.53
72.992 -116.17 -149.12
68.528 -115.62 -149.06
63.708 -130.71 -170.24
59.705 -130.32 -170.95
63.611 -135.44 -162.45
60.153 -137.02 -164.29
[...]
POINT_DATA 61758
SCALARS radius double 
LOOKUP_TABLE default 
9.4266
7.5327
5.8581
4.4854
3.9794
2.2177
1.5823
0.95866
0.39173
4.0063
2.7504
2.5935
1.6632
1.2424
7.0884
4.4858
2.4958
1.7354
1.8361
1.1614
3.5782
3.1526
1.7711
1.7626
1.7422
1.0631
1.0791
0.55978
4.4488
1.8635
1.7164
1.7661
1.3054
0.7312
1.0944
0.71159
1.7428
1.259
0.6892
0.82039
1.0603
0.64838
0.8276
4.0531
3.5487
2.3539
1.6457
1.6102
1.0817
3.7517
2.844
1.8269
1.4892
1.3907
1.1581
0.81009
0.76427
1.8248
1.3941
0.61329
0.55093
2.9963
2.9954
2.2115
2.006
1.8138
1.02
0.69355
1.106
3.1766
1.8045
0.7296
2.3116
0.84849
0.52907
0.79834
1.9944
1.0087
0.7731
0.60833
0.49211
0.5521
1.9413
1.3591
0.9852
0.76966
0.8187
0.66084
0.67349
0.93809
1.673
1.1161
0.57448
0.5001
1.1365
0.60409
0.69888
1.1959
0.72313
0.74343
0.80811
2.0855
1.1233
0.93013
0.63851
0.81447
0.83713
0.5403
0.8799
0.84273
0.89695
0.60172
1.5901
0.72374
1.6786
0.74605
1.0929
1.0608
1.1074
0.77259
0.82952
2.4276
2.4246
1.6007
0.94224
4.4638
2.9078
1.9124
1.8786
1.1319
0.98379
3.0624
2.2581
1.7314
1.3752
1.285
1.7382
1.2894
1.0453
0.68346
0.93398
0.55372
1.0695
1.0564
0.76783
1.4782
0.76222
0.52614
0.65159
0.74839
1.0618
0.98482
1.3667
1.0321
0.78053
0.78347
0.99141
0.72597
0.54296
0.82415
1.7377
1.3606
0.91534
2.359
1.7
1.1607
0.84207
0.4496
0.71406
0.6912
1.4302
0.61272
1.5541
1.6143
1.1173
1.0554
0.85719
1.8586
1.11
0.93324
0.77662
0.86281
0.50262
0.75954
1.1439
0.64391
0.56207
1.1426
0.73165
0.92539
1.0808
1.1095
0.82049
0.7089
1.0923
0.63414
0.97669
1.7618
1.117
0.66238
1.0424
0.85905
1.1671
0.81979
0.67744
0.98075
0.74745
0.62944
1.3597
0.51547
0.9611
1.1391
0.86714
2.3004
1.1891
0.85571
1.7191
1.064
0.53768
0.46147
1.2872
0.82155
1.4455
1.0768
0.71985
1.2244
0.78147
0.85621
0.71943
0.73235
1.2312
1.6875
1.9339
0.93286
0.76686
0.76754
0.73724
0.85901
1.1349
0.7574
1.008
0.57743
0.90369
1.0355
0.84344
0.4361
1.9508
0.80601
1.9512
1.3072
0.91574
0.92319
0.89234
1.3159
0.92414
1.1218
0.96046
0.72524
1.4057
1.1941
1.1374
0.6172
0.84753
1.573
1.4438
0.92666
1.1645
0.67128
1.0799
0.61608
0.85579
0.84962
1.3262
0.68421
0.8319
0.8486
0.78474
0.78786
1.1225
0.96441
0.72996
0.79515
1.5552
0.79165
0.97775
0.99933
0.71205
1.0782
0.63385
0.50339
0.34063
0.2962
1.0804
0.81691
0.46317
0.70443
0.5779
0.66458
0.46373
0.53329
0.62934
0.47587
0.49054
0.64874
0.95038
0.71862
0.92244
0.92244
0.67182
0.38412
0.72132
0.72132
0.81934
0.71247
0.3398
0.59431
0.4815
0.31659
0.91863
0.91863
0.43901
0.66768
0.45751
0.45751
0.42843
0.5666
0.65078
0.56589
0.85637
0.85637
0.7804
0.89746
0.51321
0.67872
0.51515
0.68128
0.42861
0.86209
0.47214
0.47214
0.50211
0.50211
0.78582
0.51669
0.73343
0.63776
0.37922
0.37922
0.52996
0.70087
0.52358
0.7963
0.80278
0.80278
0.5102
0.77595
0.8036
0.69878
0.97545
0.84821
0.83518
0.83518
0.63064
0.63064
0.80579
0.70069
0.88055
1.0126
0.58372
0.50759
0.93756
0.93756
0.38063
0.43773
0.2962
0.19476
0.22397
0.25757
0.93945
0.81691
0.71036
0.71036
0.40276
0.40276
0.46317
0.61254
0.50252
0.50252
0.50252
0.5779
0.40325
0.30491
0.40325
0.46373
0.54725
0.4138
0.4138
0.4138
0.42655
0.42655
0.56412
0.42655
0.54338
0.82642
0.62489
0.54338
0.80212
0.6975
0.80212
0.80212
0.21962
0.58419
0.33401
0.25256
0.41242
0.62723
0.62723
0.62723
0.46846
0.71247
0.61954
0.61954
0.29548
0.25694
0.51679
0.25694
0.36408
0.41869
0.23939
0.2753
0.79881
0.69461
0.79881
0.79881
0.38175
0.38175
0.58059
0.38175
0.39784
0.39784
0.39784
0.32395
0.37255
0.37255
0.49269
0.56589
0.56589
0.4279
0.49208
0.74467
0.74467
0.74467
0.56307
0.67861
0.5901
0.5901
0.7804
0.44627
0.38806
0.59019
0.44627
0.44795
0.22271
0.59242
0.44795
0.37271
0.37271
0.49291
0.74965
0.41055
0.41055
0.41055
0.357
0.28709
0.43662
0.43662
0.28709
0.68332
0.68332
0.44929
0.44929
0.63776
0.55458
0.55458
0.55458
0.32975
0.28674
0.32975
0.32975
0.46084
0.34846
0.60946
0.30301
0.3959
0.45529
0.69243
0.45529
0.60701
0.69807
0.69807
0.69807
0.38578
0.44365
0.58673
0.67474
0.69878
0.60763
0.60763
0.60763
0.55771
0.84821
0.48497
0.73758
0.72625
0.72625
0.63152
0.72625
0.54839
0.54839
0.47686
0.54839
0.70069
0.60929
0.52982
0.60929
0.76569
0.66582
0.76569
0.88055
0.38381
0.50759
0.38381
0.44138
0.81527
0.53605
0.53605
0.81527
0.33099
0.33099
0.28781
0.38063
0.25757
0.16935
0.16935
0.14726
0.16935
0.19476
0.16935
0.22397
0.6177
0.81691
0.71036
0.6177
0.6177
0.6177
0.6177
0.6177
0.35022
0.35022
0.35022
0.35022
0.40276
0.26482
0.53265
0.35022
0.37998
0.43698
0.37998
0.43698
0.37998
0.43698
0.50252
0.43698
0.26514
0.35065
0.20048
0.26514
0.35065
0.30491
0.40325
0.30491
0.31289
0.47587
0.35983
0.20573
0.35983
0.27208
0.35983
0.27208
0.37092
0.32254
0.37092
0.32254
0.49054
0.42655
0.37092
0.37092
0.47251
0.47251
0.54338
0.71862
0.54338
0.47251
0.41088
0.47251
0.6975
0.6975
0.52741
0.60652
0.6975
0.6975
0.52741
0.6975
0.19097
0.19097
0.19097
0.50799
0.19097
0.29045
0.21962
0.19097
0.31185
0.35862
0.54542
0.47428
0.54542
0.41242
0.31185
0.54542
0.35422
0.40736
0.40736
0.61954
0.40736
0.53873
0.53873
0.40736
0.19428
0.25694
0.19428
0.22342
0.44938
0.22342
0.22342
0.22342
0.20816
0.31659
0.36408
0.18101
0.20816
0.20816
0.20816
0.23939
0.69461
0.60401
0.60401
0.52523
0.69461
0.60401
0.52523
0.69461
0.251
0.33195
0.33195
0.251
0.38175
0.50486
0.28866
0.33195
0.34595
0.34595
0.26158
0.34595
0.22746
0.22746
0.34595
0.2817
0.24496
0.32395
0.24496
0.32395
0.32395
0.37255
0.42843
0.28135
0.49208
0.49208
0.37208
0.37208
0.37208
0.4279
0.32355
0.64754
0.48963
0.48963
0.64754
0.48963
0.64754
0.48963
0.37023
0.4462
0.5901
0.51313
0.4462
0.51313
0.388
0.67861
0.4462
0.38806
0.38806
0.33744
0.29343
0.29343
0.51321
0.29343
0.38806
0.38952
0.29454
0.19366
0.19366
0.33872
0.51515
0.38952
0.33872
0.32409
0.32409
0.32409
0.32409
0.28182
0.42861
0.42861
0.65187
0.357
0.26995
0.357
0.31044
0.357
0.357
0.31044
0.26995
0.21708
0.24964
0.37967
0.28709
0.37967
0.24964
0.24964
0.24964
0.51669
0.59419
0.59419
0.44929
0.33973
0.39069
0.39069
0.39069
0.55458
0.48224
0.36464
0.48224
0.48224
0.36464
0.48224
0.36464
0.28674
0.24934
0.24934
0.24934
0.28674
0.18854
0.28674
0.18854
0.40073
0.34846
0.30301
0.30301
0.52996
0.30301
0.26348
0.26348
0.29936
0.34426
0.29936
0.3959
0.60212
0.3959
0.3959
0.3959
0.52784
0.45899
0.60701
0.39912
0.60701
0.45899
0.52784
0.60701
0.33546
0.33546
0.33546
0.38578
0.5102
0.38578
0.44365
0.58673
0.60763
0.60763
0.52838
0.52838
0.34742
0.52838
0.34742
0.52838
0.48497
0.48497
0.48497
0.73758
0.42171
0.64137
0.55771
0.63152
0.63152
0.47752
0.63152
0.47752
0.54915
0.63152
0.41523
0.47686
0.36057
0.47686
0.27264
0.41466
0.36057
0.47686
0.47686
0.60929
0.46071
0.52982
0.40062
0.46071
0.40062
0.40062
0.52982
0.66582
0.50346
0.50346
0.57897
0.57897
0.66582
0.76569
0.66582
0.25236
0.33375
0.44138
0.44138
0.29021
0.33375
0.38381
0.38381
0.70893
0.35246
0.40533
0.46613
0.46613
0.40533
0.70893
0.70893
0.28781
0.25027
0.21763
0.28781
0.25027
0.25027
0.33099
0.25027
0.16935
0.14726
0.12806
0.14726
0.12806
0.12806
0.12806
0.14726
0.11135
0.16935
0.11135
0.14726
0.19476
0.14726
0.46707
0.53713
0.6177
0.71036
0.6177
0.46707
0.53713
0.46707
0.26705
0.53713
0.53713
0.53713
0.46707
0.53713
0.53713
0.53713
0.26482
0.30454
0.30454
0.30454
0.30454
0.26482
0.30454
0.30454
0.26482
0.35022
0.23028
0.23028
0.26482
0.46317
0.30454
0.30454
0.33042
0.33042
0.33042
0.37998
0.33042
0.33042
0.37998
0.37998
0.33042
0.37998
0.28732
0.28732
0.43698
0.37998
0.23056
0.23056
0.23056
0.30491
0.17433
0.17433
0.17433
0.23056
0.17433
0.30491
0.26514
0.20048
0.23056
0.35065
0.26514
0.26514
0.27208
0.1789
0.4138
0.27208
0.31289
0.20573
0.1789
0.1789
0.31289
0.20573
0.23659
0.23659
0.23659
0.31289
0.23659
0.23659
0.32254
0.32254
0.28047
0.28047
0.32254
0.32254
0.28047
0.18441
0.42655
0.32254
0.28047
0.37092
0.32254
0.24388
0.32254
0.16036
0.35728
0.41088
0.35728
0.41088
0.47251
0.35728
0.62489
0.35728
0.47251
0.41088
0.41088
0.31068
0.35728
0.31068
0.41088
0.31068
0.60652
0.52741
0.60652
0.52741
0.45862
0.45862
0.52741
0.52741
0.60652
0.60652
0.60652
0.3988
0.45862
0.45862
0.52741
0.60652
0.16606
0.1444
0.16606
0.1444
0.1444
0.16606
0.16606
0.44173
0.16606
0.16606
0.25256
0.16606
0.1444
0.19097
0.16606
0.16606
0.27117
0.2358
0.31185
0.31185
0.47428
0.35862
0.41242
0.35862
0.47428
0.27117
0.31185
0.35862
0.27117
0.27117
0.47428
0.41242
0.30802
0.26784
0.30802
0.35422
0.30802
0.35422
0.40736
0.53873
0.35422
0.35422
0.46846
0.26784
0.46846
0.30802
0.30802
0.35422
0.1469
0.16894
0.16894
0.22342
0.11108
0.16894
0.19428
0.1469
0.39077
0.19428
0.19428
0.16894
0.19428
0.11108
0.16894
0.19428
0.18101
0.1574
0.20816
0.2753
0.31659
0.20816
0.1574
0.1574
0.18101
0.18101
0.13687
0.18101
0.18101
0.1574
0.20816
0.18101
0.60401
0.60401
0.39715
0.52523
0.52523
0.45672
0.45672
0.39715
0.60401
0.52523
0.52523
0.45672
0.45672
0.45672
0.45672
0.60401
0.1898
0.21826
0.1898
0.28866
0.28866
0.21826
0.21826
0.21826
0.33195
0.33195
0.43901
0.1898
0.251
0.251
0.28866
0.21826
0.26158
0.30082
0.30082
0.22746
0.13005
0.30082
0.1978
0.172
0.172
0.1978
0.26158
0.30082
0.18522
0.24496
0.18522
0.21301
0.2817
0.21301
0.21301
0.18522
0.18522
0.2817
0.2817
0.2817
0.21301
0.32395
0.37255
0.18522
0.24465
0.24465
0.37208
0.4279
0.28135
0.4279
0.32355
0.28135
0.28135
0.32355
0.24465
0.32355
0.37208
0.28135
0.28135
0.18499
0.56307
0.42577
0.32194
0.42577
0.42577
0.37023
0.56307
0.32194
0.37023
0.42577
0.56307
0.42577
0.37023
0.42577
0.27995
0.32194
0.33739
0.388
0.51313
0.388
0.33739
0.4462
0.388
0.33739
0.4462
0.388
0.33739
0.33739
0.5901
0.51313
0.388
0.388
0.33744
0.29343
0.33744
0.22187
0.29343
0.25516
0.22187
0.25516
0.25516
0.22187
0.44627
0.25516
0.25516
0.14589
0.33744
0.29343
0.33872
0.33872
0.25612
0.25612
0.29454
0.25612
0.33872
0.44795
0.25612
0.33872
0.29454
0.22271
0.2131
0.28182
0.2131
0.28182
0.28182
0.2131
0.28182
0.28182
0.24506
0.24506
0.37271
0.32409
0.37271
0.37271
0.56684
0.24506
0.20412
0.31044
0.23474
0.17749
0.20412
0.31044
0.23474
0.26995
0.23474
0.31044
0.31044
0.31044
0.23474
0.26995
0.23474
0.23474
0.16414
0.18876
0.21708
0.18876
0.21708
0.33015
0.24964
0.18876
0.33015
0.18876
0.21708
0.18876
0.21708
0.18876
0.18876
0.21708
0.39069
0.44929
0.33973
0.51669
0.51669
0.39069
0.39069
0.33973
0.25689
0.29542
0.33973
0.25689
0.33973
0.29542
0.25689
0.33973
0.48224
0.31708
0.41934
0.31708
0.27572
0.31708
0.36464
0.41934
0.41934
0.36464
0.31708
0.31708
0.41934
0.31708
0.31708
0.24934
0.18854
0.16395
0.21682
0.21682
0.12397
0.21682
0.16395
0.24934
0.18854
0.16395
0.16395
0.12397
0.24934
0.16395
0.14256
0.22912
0.34846
0.30301
0.22912
0.19923
0.26348
0.26348
0.22912
0.46084
0.30301
0.19923
0.26348
0.22912
0.22912
0.22912
0.22912
0.26031
0.22636
0.29936
0.29936
0.26031
0.22636
0.34426
0.26031
0.26031
0.52358
0.29936
0.34426
0.26031
0.34426
0.34426
0.34426
0.45899
0.34706
0.39912
0.34706
0.39912
0.52784
0.30179
0.34706
0.52784
0.26243
0.30179
0.39912
0.45899
0.39912
0.52784
0.45899
0.29171
0.22057
0.22057
0.29171
0.29171
0.25366
0.29171
0.33546
0.44365
0.38578
0.33546
0.33546
0.29171
0.38578
0.5102
0.25366
0.39953
0.52838
0.52838
0.52838
0.45946
0.3021
0.39953
0.45946
0.3021
0.3021
0.45946
0.3021
0.3021
0.22843
0.3021
0.45946
0.42171
0.42171
0.42171
0.42171
0.64137
0.36671
0.31888
0.36671
0.36671
0.36671
0.55771
0.42171
0.48497
0.54915
0.47752
0.54915
0.54915
0.41523
0.31398
0.47752
0.54915
0.41523
0.36107
0.41523
0.47752
0.54915
0.36107
0.36107
0.36107
0.41466
0.31354
0.23708
0.31354
0.41466
0.23708
0.23708
0.20616
0.31354
0.36057
0.31354
0.23708
0.36057
0.41466
0.41466
0.36057
0.52982
0.40062
0.40062
0.40062
0.34837
0.46071
0.34837
0.34837
0.40062
0.22906
0.34837
0.26341
0.34837
0.26341
0.34837
0.46071
0.43779
0.57897
0.43779
0.43779
0.33103
0.43779
0.50346
0.43779
0.50346
0.43779
0.50346
0.57897
0.43779
0.66582
0.38068
0.57897
0.21944
0.21944
0.21944
0.29021
0.25236
0.38381
0.38381
0.29021
0.25236
0.21944
0.29021
0.25236
0.33375
0.29021
0.33375
0.29021
0.35246
0.61646
0.30649
0.26651
0.26651
0.35246
0.30649
0.40533
0.40533
0.40533
0.30649
0.35246
0.40533
0.61646
0.35246
0.61646
0.25027
0.21763
0.21763
0.21763
0.18924
0.18924
0.25027
0.21763
0.21763
0.18924
0.21763
0.21763
0.21763
0.28781
0.21763
0.16456
0.22397
0.11135
0.14726
0.12806
0.11135
0.11135
0.096829
0.12806
0.096829
0.11135
0.11135
0.096829
0.11135
0.096829
0.11135
0.11135
0.12806
0.096829
0.096829
0.14726
0.11135
0.096829
0.096829
0.12806
0.11135
0.16935
0.11135
0.12806
0.35317
0.40615
0.46707
0.35317
0.53713
0.46707
0.6177
0.6177
0.53713
0.40615
0.40615
0.40615
0.40615
0.46707
0.40615
0.26705
0.46707
0.26705
0.46707
0.35317
0.46707
0.40615
0.35317
0.46707
0.30711
0.46707
0.26705
0.46707
0.35317
0.17412
0.23028
0.15141
0.26482
0.17412
0.26482
0.23028
0.26482
0.17412
0.26482
0.23028
0.20024
0.26482
0.23028
0.26482
0.23028
0.17412
0.23028
0.26482
0.30454
0.20024
0.20024
0.20024
0.20024
0.15141
0.23028
0.40276
0.20024
0.26482
0.23028
0.26482
0.20024
0.28732
0.24984
0.28732
0.24984
0.28732
0.28732
0.24984
0.33042
0.28732
0.24984
0.28732
0.24984
0.33042
0.24984
0.33042
0.24984
0.28732
0.28732
0.33042
0.28732
0.24984
0.24984
0.24984
0.24984
0.37998
0.24984
0.33042
0.28732
0.24984
0.20048
0.17433
0.20048
0.17433
0.17433
0.20048
0.26514
0.17433
0.1516
0.13182
0.1516
0.13182
0.11463
0.1516
0.20048
0.1516
0.1516
0.1516
0.26514
0.1516
0.23056
0.13182
0.1516
0.17433
0.20048
0.20048
0.30491
0.26514
0.17433
0.23056
0.1516
0.23056
0.15556
0.23659
0.15556
0.23659
0.35983
0.23659
0.23659
0.20573
0.27208
0.15556
0.1789
0.15556
0.15556
0.15556
0.15556
0.15556
0.27208
0.15556
0.1789
0.1789
0.20573
0.1789
0.20573
0.1789
0.20573
0.27208
0.1789
0.1789
0.20573
0.20573
0.20573
0.24388
0.28047
0.28047
0.18441
0.24388
0.21207
0.24388
0.21207
0.28047
0.24388
0.28047
0.21207
0.24388
0.18441
0.16036
0.16036
0.37092
0.18441
0.28047
0.24388
0.24388
0.24388
0.32254
0.21207
0.18441
0.28047
0.21207
0.18441
0.28047
0.16036
0.31068
0.31068
0.27016
0.35728
0.31068
0.27016
0.23492
0.35728
0.35728
0.41088
0.27016
0.31068
0.54338
0.27016
0.27016
0.31068
0.27016
0.41088
0.35728
0.23492
0.35728
0.31068
0.27016
0.23492
0.31068
0.17763
0.27016
0.20428
0.35728
0.27016
0.27016
0.27016
0.30155
0.52741
0.3988
0.45862
0.3988
0.52741
0.45862
0.34678
0.3988
0.3988
0.3988
0.34678
0.34678
0.45862
0.45862
0.34678
0.52741
0.45862
0.34678
0.52741
0.52741
0.45862
0.30155
0.34678
0.34678
0.3988
0.3988
0.34678
0.3988
0.45862
0.30155
0.52741
0.1444
0.10919
0.12557
0.12557
0.1444
0.10919
0.12557
0.10919
0.12557
0.10919
0.1444
0.1444
0.1444
0.12557
0.38412
0.12557
0.094947
0.1444
0.1444
0.1444
0.21962
0.16606
0.12557
0.1444
0.094947
0.12557
0.16606
0.12557
0.12557
0.1444
0.1444
0.12557
0.2358
0.2358
0.20504
0.20504
0.27117
0.20504
0.2358
0.27117
0.41242
0.27117
0.27117
0.31185
0.35862
0.31185
0.27117
0.31185
0.27117
0.41242
0.2358
0.20504
0.27117
0.2358
0.31185
0.31185
0.2358
0.2358
0.2358
0.20504
0.41242
0.35862
0.35862
0.27117
0.23291
0.26784
0.17611
0.23291
0.26784
0.26784
0.23291
0.30802
0.23291
0.26784
0.23291
0.30802
0.35422
0.35422
0.46846
0.30802
0.30802
0.26784
0.30802
0.26784
0.40736
0.23291
0.23291
0.23291
0.26784
0.40736
0.26784
0.23291
0.26784
0.20253
0.30802
0.30802
0.12774
0.12774
0.1469
0.12774
0.1469
0.11108
0.12774
0.19428
0.096592
0.096592
0.1469
0.11108
0.11108
0.16894
0.11108
0.12774
0.12774
0.3398
0.16894
0.11108
0.16894
0.12774
0.11108
0.1469
0.1469
0.16894
0.096592
0.096592
0.1469
0.12774
0.16894
0.16894
0.1574
0.1574
0.13687
0.11902
0.13687
0.18101
0.23939
0.1574
0.20816
0.2753
0.18101
0.13687
0.13687
0.13687
0.11902
0.1574
0.13687
0.13687
0.1574
0.11902
0.11902
0.1574
0.13687
0.1574
0.13687
0.13687
0.11902
0.18101
0.13687
0.11902
0.1574
0.45672
0.52523
0.52523
0.34535
0.34535
0.34535
0.45672
0.34535
0.45672
0.45672
0.39715
0.39715
0.39715
0.34535
0.34535
0.34535
0.52523
0.34535
0.45672
0.45672
0.45672
0.34535
0.39715
0.34535
0.39715
0.34535
0.34535
0.39715
0.39715
0.39715
0.52523
0.52523
0.16504
0.16504
0.16504
0.1898
0.16504
0.16504
0.251
0.16504
0.251
0.16504
0.1898
0.1898
0.1898
0.14351
0.1898
0.28866
0.251
0.16504
0.28866
0.38175
0.1898
0.16504
0.16504
0.21826
0.21826
0.21826
0.21826
0.21826
0.251
0.1898
0.1898
0.22746
0.1978
0.30082
0.26158
0.14956
0.26158
0.1978
0.13005
0.1978
0.14956
0.11309
0.26158
0.14956
0.172
0.172
0.13005
0.14956
0.14956
0.14956
0.172
0.11309
0.22746
0.14956
0.26158
0.172
0.16106
0.16106
0.21301
0.16106
0.16106
0.16106
0.16106
0.18522
0.14005
0.24496
0.18522
0.18522
0.18522
0.18522
0.16106
0.16106
0.16106
0.16106
0.24496
0.21301
0.24496
0.21301
0.18522
0.24496
0.14005
0.18522
0.2817
0.18522
0.24496
0.32395
0.16106
0.16106
0.21274
0.21274
0.13988
0.21274
0.32355
0.21274
0.24465
0.37208
0.24465
0.21274
0.21274
0.37208
0.28135
0.28135
0.24465
0.21274
0.18499
0.24465
0.28135
0.24465
0.21274
0.18499
0.28135
0.21274
0.18499
0.32355
0.24465
0.18499
0.24465
0.21274
0.16086
0.16086
0.37023
0.48963
0.27995
0.37023
0.27995
0.27995
0.37023
0.37023
0.37023
0.27995
0.27995
0.32194
0.48963
0.48963
0.27995
0.27995
0.32194
0.32194
0.37023
0.24343
0.27995
0.48963
0.37023
0.32194
0.24343
0.32194
0.27995
0.37023
0.18407
0.24343
0.24343
0.27995
0.29338
0.25511
0.33739
0.25511
0.4462
0.33739
0.33739
0.29338
0.29338
0.29338
0.388
0.29338
0.33739
0.33739
0.29338
0.29338
0.388
0.25511
0.25511
0.33739
0.29338
0.25511
0.29338
0.25511
0.388
0.51313
0.4462
0.388
0.33739
0.29338
0.25511
0.33739
0.19293
0.29343
0.25516
0.25516
0.19293
0.29343
0.19293
0.19293
0.19293
0.25516
0.16777
0.22187
0.19293
0.22187
0.22187
0.22187
0.19293
0.19293
0.19293
0.38806
0.29343
0.22187
0.19293
0.22187
0.19293
0.29343
0.19293
0.19293
0.25516
0.29454
0.25612
0.29454
0.22271
0.19366
0.22271
0.22271
0.19366
0.25612
0.25612
0.19366
0.22271
0.25612
0.29454
0.19366
0.38952
0.19366
0.22271
0.25612
0.29454
0.25612
0.25612
0.19366
0.19366
0.1853
0.16113
0.24506
0.2131
0.16113
0.1853
0.24506
0.2131
0.1853
0.24506
0.1853
0.16113
0.1853
0.24506
0.24506
0.1853
0.2131
0.2131
0.1853
0.2131
0.2131
0.32409
0.24506
0.28182
0.24506
0.32409
0.24506
0.32409
0.24506
0.49291
0.2131
0.2131
0.17749
0.17749
0.26995
0.17749
0.17749
0.20412
0.15434
0.15434
0.17749
0.17749
0.26995
0.15434
0.20412
0.20412
0.15434
0.23474
0.20412
0.20412
0.17749
0.26995
0.26995
0.20412
0.26995
0.26995
0.20412
0.17749
0.23474
0.17749
0.20412
0.20412
0.20412
0.20412
0.10793
0.14273
0.16414
0.12412
0.18876
0.14273
0.16414
0.10793
0.16414
0.18876
0.18876
0.28709
0.21708
0.18876
0.16414
0.12412
0.21708
0.28709
0.16414
0.16414
0.14273
0.18876
0.16414
0.12412
0.093849
0.18876
0.16414
0.16414
0.14273
0.16414
0.18876
0.14273
0.33973
0.33973
0.39069
0.39069
0.29542
0.25689
0.25689
0.44929
0.39069
0.44929
0.29542
0.33973
0.29542
0.33973
0.29542
0.29542
0.22338
0.22338
0.25689
0.16891
0.29542
0.25689
0.22338
0.22338
0.29542
0.29542
0.25689
0.25689
0.22338
0.22338
0.29542
0.29542
0.41934
0.27572
0.23976
0.31708
0.36464
0.27572
0.27572
0.23976
0.23976
0.23976
0.27572
0.27572
0.31708
0.36464
0.27572
0.31708
0.36464
0.31708
0.27572
0.27572
0.27572
0.27572
0.27572
0.36464
0.31708
0.23976
0.27572
0.27572
0.23976
0.093737
0.21682
0.16395
0.12397
0.12397
0.14256
0.16395
0.18854
0.14256
0.18854
0.1078
0.08151
0.18854
0.14256
0.14256
0.1078
0.21682
0.12397
0.12397
0.16395
0.14256
0.12397
0.1078
0.14256
0.1078
0.1078
0.21682
0.14256
0.093737
0.14256
0.093737
0.12397
0.19923
0.19923
0.30301
0.26348
0.22912
0.26348
0.19923
0.19923
0.17325
0.131
0.22912
0.22912
0.22912
0.15065
0.19923
0.40073
0.19923
0.26348
0.17325
0.17325
0.15065
0.19923
0.22912
0.19923
0.17325
0.19923
0.15065
0.17325
0.19923
0.19923
0.19923
0.19683
0.22636
0.19683
0.17116
0.26031
0.19683
0.26031
0.22636
0.22636
0.17116
0.19683
0.19683
0.19683
0.29936
0.22636
0.22636
0.22636
0.22636
0.45529
0.45529
0.22636
0.26031
0.26031
0.29936
0.22636
0.19683
0.29936
0.22636
0.19683
0.29936
0.29936
0.19683
0.30179
0.39912
0.30179
0.30179
0.2282
0.34706
0.30179
0.30179
0.34706
0.30179
0.45899
0.39912
0.2282
0.26243
0.30179
0.30179
0.39912
0.45899
0.2282
0.2282
0.26243
0.26243
0.26243
0.34706
0.39912
0.26243
0.34706
0.30179
0.45899
0.39912
0.39912
0.30179
0.25366
0.22057
0.25366
0.25366
0.22057
0.25366
0.22057
0.22057
0.25366
0.25366
0.29171
0.22057
0.25366
0.38578
0.33546
0.29171
0.29171
0.25366
0.29171
0.29171
0.25366
0.22057
0.33546
0.25366
0.44365
0.29171