# vtk DataFile Version 3.0
vtk output
ASCII
DATASET POLYDATA
POINTS 30892 float
-12.818 -141.19 -90.195
16.779 -136.3 -143.49
26.202 -134.74 -151.62
37.115 -131.63 -166.42
41.985 -138.66 -178.88
44.274 -140.25 -190.81
45.817 -140.33 -198.64
45.328 -139.34 -201.97
39.64 -131.24 -170.6
42.92 -122.39 -187.14
43.147 -121.25 -189.31
42.313 -116.89 -198.58
40.856 -114.15 -207.82
40.384 -130.91 -171.48
48.157 -131.85 -178.54
59.017 -136.06 -185.18
67.362 -140.44 -189.04
75.175 -145.55 -196.89
84.955 -148.45 -205.29
87.823 -148.24 -205.96
77.684 -144.18 -199.12
52.18 -116.08 -218.92
53.1 -108.49 -237.93
52.731 -103.98 -241.85
48.581 -142.65 -186.65
53.081 -147.38 -187.57
41.824 -116.27 -200.03
38.674 -116.67 -202.59
42.651 -104.09 -210.64
57.736 -93.539 -262.76
59.977 -110.43 -229.38
63.85 -107.26 -238.27
64.113 -105.17 -234.3
31.321 -123.05 -154.53
31.41 -122.41 -154.49
36.949 -113.04 -153.48
49.794 -97.078 -146.98
32.75 -142.73 -144.1
38.535 -144.77 -137.42
40.011 -141.06 -125.05
44.461 -136.65 -120.55
48.377 -133.45 -115.6
48.984 -131.03 -114.54
43.039 -150.3 -146.49
49.935 -157.07 -146.99
57.911 -159.61 -147.79
62.505 -158.99 -145.87
63.443 -157.27 -145.12
47.838 -128.97 -171.59
55.195 -125 -166.73
58.389 -124 -161.85
62.735 -122.19 -158.34
61.179 -125.69 -165.46
62.454 -128.2 -165.46
48.204 -110.78 -194.12
54.214 -94.79 -198.65
60.545 -102.08 -204.03
28.994 -116.82 -160.96
25.761 -112.61 -162.69
24.342 -112.13 -162.89
25.507 -111.33 -162.63
28.252 -100.22 -179.04
39.853 -104.98 -155.14
41.57 -93.955 -159.47
53.941 -122.08 -170.02
64.173 -106.85 -169.3
64.883 -112.63 -176.95
58.447 -124.34 -160.88
72.78 -125.34 -165.7
78.496 -148.62 -190.13
82.187 -149.95 -189
68.783 -165.6 -150.77
54.725 -163.58 -158.75
58.911 -169.73 -161.4
64.832 -169.92 -162.46
39.641 -148.7 -128.29
40.176 -150.4 -126.42
39.556 -156.39 -114.45
41.428 -158.05 -104.28
43.747 -157.82 -101.95
37.213 -157.78 -110.83
41.928 -159.89 -98.183
56.028 -171.43 -148.03
59.306 -177.16 -145.68
40.978 -161.48 -122.18
41.425 -164.17 -121.88
28.33 -183.46 -104.92
24.76 -184.91 -99.515
26.618 -186.25 -104.72
35.796 -199.59 -128.31
49.451 -173.03 -114.04
51.268 -155.95 -117.72
56.284 -155.59 -109.93
32.474 -108.21 -139.3
32.182 -104.41 -132.76
34.391 -98.052 -134.41
74.701 -133.57 -186.41
78.167 -131.62 -187.83
90.406 -133.11 -185.63
57.593 -132.26 -193.37
74.994 -121.22 -205.17
63.275 -132.08 -202.75
75.291 -126.46 -221.07
86.442 -125.53 -230.63
96.866 -154.57 -216.59
47.434 -142.03 -206.13
46.562 -146.91 -205.41
46.65 -147.21 -206.9
48.227 -147.64 -205.93
68.435 -138.29 -210.45
84.759 -155.17 -192.18
57.114 -168.51 -165.04
56.314 -170.03 -167.45
58.409 -179.68 -149.5
56.878 -182.02 -150.02
62.035 -189.21 -151.46
62.394 -156.88 -201.71
69.805 -162.46 -207.78
80.91 -171.26 -214.27
75.415 -171.87 -216.92
65.672 -162.59 -202.88
68.843 -187.29 -171.87
67.913 -192.69 -173.51
74.295 -189.43 -185.54
73.089 -195.64 -177.68
66.374 -158.57 -143.97
79.503 -155.16 -141.24
69.287 -159.99 -141.67
62.352 -162.84 -115.59
69.335 -171.58 -114.82
65.97 -163.58 -113.58
61.67 -134.31 -116.64
69.203 -135.97 -112.94
67.997 -131.89 -117.19
52.471 -129.05 -108.08
40.684 -135.66 -110.75
37.36 -125.73 -97.288
42.218 -136.66 -95.974
43.495 -136.18 -93.92
30.81 -139.03 -67.701
77.701 -123.14 -225.49
42.598 -102.34 -158.33
43.831 -137.49 -199.39
38.992 -138.26 -204.31
34.014 -115.55 -213.76
40.204 -117.78 -212.98
91.625 -145.93 -204.48
88.631 -147.27 -208
77.215 -142.94 -198.18
77.761 -143.59 -200.71
47.449 -99.811 -241.54
46.074 -101.34 -250.29
51.7 -149.48 -183.24
55.537 -147.12 -185.66
34.316 -116.13 -201.12
34.18 -120.63 -203.3
40.303 -97.538 -212.06
39.267 -101.61 -216.11
51.357 -92.616 -269.45
65.667 -89.018 -266.25
64.058 -111.18 -241.08
70.456 -105.19 -241.66
70.973 -101.29 -233.2
66.617 -97.41 -234.95
57.865 -96.861 -141.88
53.64 -89.399 -142.84
63.705 -122.66 -152.6
67.821 -117.95 -152.79
61.947 -130.6 -168.19
61.869 -133.07 -163.76
57.671 -88.512 -195.05
51.931 -87.326 -200.83
64.979 -102 -204.24
65.614 -96.49 -205.6
19.735 -116.29 -158.95
21.859 -116.37 -166.23
28.234 -110.16 -162.76
23.434 -106.9 -159.63
28.686 -94.271 -178.95
25.607 -99.965 -182.41
45.163 -85.736 -160.42
37.771 -87.069 -160.44
71.386 -103.44 -167.3
66.044 -99.629 -169.22
63.38 -112.08 -180.12
70.771 -110.12 -178.6
54.378 -127.79 -160.47
55.327 -123.88 -158.69
78.082 -128.05 -162.62
79.277 -120.87 -161.46
81.627 -152.76 -184.57
83.767 -149.69 -183.79
27.233 -102.45 -123.89
32.769 -108.26 -130.95
40.281 -92.274 -126.23
31.416 -91.752 -129.01
79.519 -129.47 -187.61
77.651 -131.73 -190.35
95.607 -135.94 -181.98
93.944 -127.89 -185.67
80.371 -119.5 -204.65
76.988 -116.3 -204.68
94.656 -126.65 -233.32
92.449 -119.48 -237.67
104.14 -153.16 -220.99
102.76 -162.14 -221.85
48.35 -139.4 -211.35
42.605 -140.11 -213.07
37.376 -146.29 -217.42
44.573 -150.68 -216.66
51.439 -147.61 -206.2
50.1 -150.04 -207.66
69.533 -139.87 -214.34
65.512 -138.41 -212.69
87.332 -161.03 -189.95
93.307 -158.06 -189.52
89.369 -184.09 -221.82
88.846 -178.43 -212.49
73.061 -174.06 -222.59
76.594 -185.58 -222.02
65.265 -164.33 -203.09
67.692 -162.49 -202.83
78.967 -119.35 -225.47
76.995 -124.7 -230.53
43.428 -102.8 -161.47
45.732 -102.67 -158.2
45.342 -134.12 -198.32
44.435 -137.35 -197.24
35.219 -136.57 -203.87
34.276 -138.98 -203.94
30.47 -118.89 -219.07
29.502 -113.79 -216.92
42.814 -119.72 -214.05
42.028 -117.93 -216.94
94.374 -142.11 -205.02
95.687 -146.43 -203.09
87.418 -145.33 -210.87
88.691 -148.93 -210.55
77.503 -143.01 -196.34
74.533 -142.08 -197.65
76.237 -144.43 -202.39
79.196 -143 -201.83
46.457 -93.126 -240.55
43.672 -100.95 -239.62
39.148 -101.75 -251.13
41.325 -107.49 -254.16
47.486 -148.06 -181.01
52.37 -149.54 -180.11
56.493 -144.5 -184.88
58.129 -149.08 -185.92
33.377 -113.45 -200.21
33.44 -116.81 -197.51
28.25 -122.84 -203.45
32.26 -123.66 -201.01
39.526 -94.651 -210.61
36.814 -93.086 -214.23
34.201 -98.922 -218.44
38.868 -102.36 -219.12
49.737 -88.516 -276.53
44.425 -93.648 -271.01
69.638 -85.4 -274.21
73.65 -88.629 -266.27
60.941 -113.79 -243.27
62.993 -114.9 -239.89
74.403 -101.65 -244.22
73.685 -106.07 -245.33
75.644 -100.39 -230.91
76.476 -96.043 -232.36
68.244 -91.637 -232.55
65.743 -91.685 -236.34
61.57 -99.174 -137.35
64.74 -94.091 -138.22
52.655 -83.789 -140.88
58.719 -84.813 -142.15
64.737 -125.17 -150.8
61.107 -121.99 -148.53
72.992 -116.17 -149.12
68.528 -115.62 -149.06
63.708 -130.71 -170.24
59.705 -130.32 -170.95
63.611 -135.44 -162.45
60.153 -137.02 -164.29
61.942 -86.426 -192.7
57.761 -82.583 -192.6
50.366 -81.033 -199.48
49.976 -83.632 -204.44
66.696 -103.74 -206.9
66.634 -103.5 -202.16
69.481 -93.177 -208.92
70.938 -93.025 -203.69
20.241 -122.07 -156.17
23.545 -120.63 -167.61
21.319 -117.69 -170.64
29.977 -110.53 -165
30.577 -110.7 -160.04
20.311 -104.08 -158.05
23.298 -103.22 -158.64
25.946 -89.601 -178.39
30.715 -90.355 -181.24
22.768 -101.83 -182.87
26.065 -99.218 -186.14
45.125 -78.309 -160.09
49.107 -81.579 -163.26
35.529 -81.344 -158.01
33.349 -84.448 -160.99
74.802 -100.74 -163.13
77.287 -100.14 -168.89
65.267 -95.726 -168.21
69.291 -94.013 -171.01
60.159 -110.81 -180.36
62.023 -114.83 -182.1
75.142 -105.85 -180.43
73.864 -110.58 -179.94
52.088 -130.78 -161.5
50.018 -129.24 -160.71
53.005 -122.05 -159.66
53.282 -123.03 -155.17
81.619 -130.24 -163.11
78.969 -130.86 -159.93
84.656 -118.83 -161.58
84.268 -118.94 -155.73
79.637 -155.13 -183.75
79.218 -152.83 -180.74
83.175 -149.8 -178.95
85.613 -148.75 -181.97
24.367 -98.655 -118.84
26.175 -101.42 -114.61
35.996 -110.13 -131.51
30.288 -111.29 -131.83
45.989 -91.228 -119.64
41.225 -86.336 -119.44
27.09 -89.437 -128.83
31.097 -85.7 -129.47
80.785 -129.22 -186.03
78.933 -126.95 -187.55
74.729 -130.01 -191.69
76.223 -133.35 -191.16
97.348 -138.42 -177.32
100.47 -136.03 -180.65
94.447 -122.8 -184.87
97.994 -126.33 -188.06
86.094 -115.08 -204.84
83.902 -120.68 -205.38
81.052 -111.52 -203.22
75.789 -114.64 -205.1
100.07 -130.27 -238.33
99.692 -125.98 -230.34
98.635 -117.67 -246.73
96.949 -113.56 -238.2
107.88 -150.1 -219.79
107.59 -152.34 -228.65
108.46 -166.02 -221.08
106.57 -165.01 -230.14
50.071 -138.91 -214.88
49.24 -136.37 -212.38
43.77 -138.62 -217.81
41.698 -137.44 -214.81
34.062 -147.1 -226.11
31.659 -143.04 -223.06
44.202 -156.94 -221.77
47.215 -150.29 -222.09
53.122 -148.9 -204.12
52.602 -146.17 -205.27
51.891 -152.07 -207.74
52.301 -150.94 -210.31
68.416 -141.96 -218.63
71.991 -141.14 -215.95
64.171 -135.81 -215.08
63.277 -137.89 -211.82
87.746 -164.32 -191.6
85.848 -164 -187.9
99.424 -159.23 -190.67
98.177 -161.52 -185.67
93.792 -194.34 -223.22
97.954 -188.99 -227.94
90.006 -181.51 -208.3
94.704 -179.26 -209.66
72.832 -171.59 -225.77
67.867 -174.7 -223.99
74.394 -193.04 -226.71
76.592 -191.93 -222.1
63.635 -164.83 -203.14
66.467 -168.1 -202.2
69.121 -162.09 -200.74
69.511 -161.66 -205.56
82.469 -117.54 -224.08
77.411 -117.33 -224.18
73.292 -125.97 -232.09
77.249 -128.94 -232.27
43.03 -101.52 -164.16
43.868 -105.23 -163.56
46.974 -105 -156.57
46.86 -101.61 -156.71
47.714 -132.04 -198.91
45.412 -131.88 -195.36
45.68 -138.91 -196.36
42.757 -137.36 -195.52
34.341 -135.36 -205.47
32.955 -135.67 -200.85
32.928 -139.54 -205.47
29.588 -139.06 -203.26
30.74 -120.43 -223.09
26.349 -119.76 -222.73
27.136 -111.13 -218.52
25.861 -113.38 -216.54
44.866 -120.39 -212.29
46.134 -118.64 -213.73
44.728 -117.45 -218.89
41.423 -118.02 -219.76
94.636 -139.11 -205.85
98.433 -139.89 -205.34
97.929 -148.19 -203.48
98.673 -145.67 -200.95
87.298 -144.84 -214.26
87.689 -142.69 -212.11
86.984 -151.12 -212.11
90.586 -151.33 -211.96
79.806 -142.45 -195.38
77.887 -145.03 -195.3
73.017 -142.98 -196.19
72.709 -140.77 -198.91
74.45 -145.77 -202.83
76.709 -145.99 -203.43
80.895 -141.68 -201.78
79.278 -141.14 -203.94
43.216 -88.947 -240.59
48.151 -89.13 -241.01
43.639 -101.54 -237.27
41.864 -103.18 -239.71
36.024 -99.281 -253.14
33.935 -102.15 -248.9
34.705 -111.05 -257.93
39.509 -112.93 -254
45.435 -145.66 -180.67
44.492 -146.88 -177.3
54.485 -148.69 -177.66
52.466 -150.88 -178.21
[...]
POINT_DATA 30892
SCALARS radius double 
LOOKUP_TABLE default 
7.5327
5.8581
4.4854
3.9794
2.2177
1.5823
0.95866
0.39173
4.0063
2.7504
2.5935
1.6632
1.2424
3.7517
2.844
1.8269
1.4892
1.3907
1.1581
0.81009
0.76427
1.8248
1.3941
0.61329
1.5901
0.72374
1.6786
0.74605
1.0929
1.0608
1.1074
0.77259
0.82952
2.4276
2.4246
1.6007
0.94224
4.4638
2.9078
1.9124
1.8786
1.1319
0.98379
3.0624
2.2581
1.7314
1.3752
1.285
1.7382
1.2894
1.0453
0.68346
0.93398
0.55372
1.0695
1.0564
0.76783
1.4782
0.76222
0.52614
0.65159
0.74839
1.0618
0.98482
1.3667
1.0321
0.78053
0.78347
0.99141
0.72597
0.54296
0.82415
1.7377
1.3606
0.91534
2.359
1.7
1.1607
0.84207
0.4496
0.71406
0.6912
1.4302
0.61272
1.6875
1.9339
0.93286
0.76686
0.76754
0.73724
0.85901
1.1349
0.7574
1.008
0.57743
0.90369
1.0355
0.84344
0.4361
1.9508
0.80601
1.9512
1.3072
0.91574
0.92319
0.89234
1.3159
0.92414
1.1218
0.96046
0.72524
1.4057
1.1941
1.1374
0.6172
0.84753
1.573
1.4438
0.92666
1.1645
0.67128
1.0799
0.61608
0.85579
0.84962
1.3262
0.68421
0.8319
0.8486
0.78474
0.78786
1.1225
0.96441
0.72996
0.79515
1.5552
0.79165
0.97775
0.99933
0.71205
1.0782
0.50339
0.34063
0.2962
1.0804
0.81691
0.46317
0.70443
0.5779
0.66458
0.46373
0.53329
0.62934
0.47587
0.49054
0.64874
0.95038
0.71862
0.92244
0.92244
0.67182
0.38412
0.72132
0.72132
0.81934
0.71247
0.3398
0.59431
0.4815
0.31659
0.91863
0.91863
0.43901
0.66768
0.45751
0.45751
0.42843
0.5666
0.65078
0.56589
0.85637
0.85637
0.7804
0.89746
0.51321
0.67872
0.51515
0.68128
0.42861
0.86209
0.47214
0.47214
0.50211
0.50211
0.78582
0.51669
0.73343
0.63776
0.37922
0.37922
0.52996
0.70087
0.52358
0.7963
0.80278
0.80278
0.5102
0.77595
0.8036
0.69878
0.97545
0.84821
0.83518
0.83518
0.63064
0.63064
0.80579
0.70069
0.88055
1.0126
0.58372
0.50759
0.93756
0.93756
0.38063
0.43773
0.2962
0.19476
0.22397
0.25757
0.93945
0.81691
0.71036
0.71036
0.40276
0.40276
0.46317
0.61254
0.50252
0.50252
0.50252
0.5779
0.40325
0.30491
0.40325
0.46373
0.54725
0.4138
0.4138
0.4138
0.42655
0.42655
0.56412
0.42655
0.54338
0.82642
0.62489
0.54338
0.80212
0.6975
0.80212
0.80212
0.21962
0.58419
0.33401
0.25256
0.41242
0.62723
0.62723
0.62723
0.46846
0.71247
0.61954
0.61954
0.29548
0.25694
0.51679
0.25694
0.36408
0.41869
0.23939
0.2753
0.79881
0.69461
0.79881
0.79881
0.38175
0.38175
0.58059
0.38175
0.39784
0.39784
0.39784
0.32395
0.37255
0.37255
0.49269
0.56589
0.56589
0.4279
0.49208
0.74467
0.74467
0.74467
0.56307
0.67861
0.5901
0.5901
0.7804
0.44627
0.38806
0.59019
0.44627
0.44795
0.22271
0.59242
0.44795
0.37271
0.37271
0.49291
0.74965
0.41055
0.41055
0.41055
0.357
0.28709
0.43662
0.43662
0.28709
0.68332
0.68332
0.44929
0.44929
0.63776
0.55458
0.55458
0.55458
0.32975
0.28674
0.32975
0.32975
0.46084
0.34846
0.60946
0.30301
0.3959
0.45529
0.69243
0.45529
0.60701
0.69807
0.69807
0.69807
0.38578
0.44365
0.58673
0.67474
0.69878
0.60763
0.60763
0.60763
0.55771
0.84821
0.48497
0.73758
0.72625
0.72625
0.63152
0.72625
0.54839
0.54839
0.47686
0.54839
0.70069
0.60929
0.52982
0.60929
0.76569
0.66582
0.76569
0.88055
0.38381
0.50759
0.38381
0.44138
0.81527
0.53605
0.53605
0.81527
0.33099
0.33099
0.28781
0.38063
0.25757
0.16935
0.16935
0.14726
0.16935
0.19476
0.16935
0.22397
0.6177
0.81691
0.71036
0.6177
0.6177
0.6177
0.6177
0.6177
0.35022
0.35022
0.35022
0.35022
0.40276
0.26482
0.53265
0.35022
0.37998
0.43698
0.37998
0.43698
0.37998
0.43698
0.50252
0.43698
0.26514
0.35065
0.20048
0.26514
0.35065
0.30491
0.40325
0.30491
0.31289
0.47587
0.35983
0.20573
0.35983
0.27208
0.35983
0.27208
0.37092
0.32254
0.37092
0.32254
0.49054
0.42655
0.37092
0.37092
0.47251
0.47251
0.54338
0.71862
0.54338
0.47251
0.41088
0.47251
0.6975
0.6975
0.52741
0.60652
0.6975
0.6975
0.52741
0.6975
0.19097
0.19097
0.19097
0.50799
0.19097
0.29045
0.21962
0.19097
0.31185
0.35862
0.54542
0.47428
0.54542
0.41242
0.31185
0.54542
0.35422
0.40736
0.40736
0.61954
0.40736
0.53873
0.53873
0.40736
0.19428
0.25694
0.19428
0.22342
0.44938
0.22342
0.22342
0.22342
0.20816
0.31659
0.36408
0.18101
0.20816
0.20816
0.20816
0.23939
0.69461
0.60401
0.60401
0.52523
0.69461
0.60401
0.52523
0.69461
0.251
0.33195
0.33195
0.251
0.38175
0.50486
0.28866
0.33195
0.34595
0.34595
0.26158
0.34595
0.22746
0.22746
0.34595
0.2817
0.24496
0.32395
0.24496
0.32395
0.32395
0.37255
0.42843
0.28135
0.49208
0.49208
0.37208
0.37208
0.37208
0.4279
0.32355
0.64754
0.48963
0.48963
0.64754
0.48963
0.64754
0.48963
0.37023
0.4462
0.5901
0.51313
0.4462
0.51313
0.388
0.67861
0.4462
0.38806
0.38806
0.33744
0.29343
0.29343
0.51321
0.29343
0.38806
0.38952
0.29454
0.19366
0.19366
0.33872
0.51515
0.38952
0.33872
0.32409
0.32409
0.32409
0.32409
0.28182
0.42861
0.42861
0.65187
0.357
0.26995
0.357
0.31044
0.357
0.357
0.31044
0.26995
0.21708
0.24964
0.37967
0.28709
0.37967
0.24964
0.24964
0.24964
0.51669
0.59419
0.59419
0.44929
0.33973
0.39069
0.39069
0.39069
0.55458
0.48224
0.36464
0.48224
0.48224
0.36464
0.48224
0.36464
0.28674
0.24934
0.24934
0.24934
0.28674
0.18854
0.28674
0.18854
0.40073
0.34846
0.30301
0.30301
0.52996
0.30301
0.26348
0.26348
0.29936
0.34426
0.29936
0.3959
0.60212
0.3959
0.3959
0.3959
0.52784
0.45899
0.60701
0.39912
0.60701
0.45899
0.52784
0.60701
0.33546
0.33546
0.33546
0.38578
0.5102
0.38578
0.44365
0.58673
0.60763
0.60763
0.52838
0.52838
0.34742
0.52838
0.34742
0.52838
0.48497
0.48497
0.48497
0.73758
0.42171
0.64137
0.55771
0.63152
0.63152
0.47752
0.63152
0.47752
0.54915
0.63152
0.41523
0.47686
0.36057
0.47686
0.27264
0.41466
0.36057
0.47686
0.47686
0.60929
0.46071
0.52982
0.40062
0.46071
0.40062
0.40062
0.52982
0.66582
0.50346
0.50346
0.57897
0.57897
0.66582
0.76569
0.66582
0.25236
0.33375
0.44138
0.44138
0.29021
0.33375
0.38381
0.38381
0.70893
0.35246
0.40533
0.46613
0.46613
0.40533
0.70893
0.70893
0.28781
0.25027
0.21763
0.28781
0.25027
0.25027
0.33099
0.25027
0.16935
0.14726
0.12806
0.14726
0.12806
0.12806
0.12806
0.14726
0.11135
0.16935
0.11135
0.14726
0.19476
0.14726
0.46707
0.53713
0.6177
0.71036
0.6177
0.46707
0.53713
0.46707
0.26705
0.53713
0.53713
0.53713
0.46707
0.53713
0.53713
0.53713
0.26482
0.30454
0.30454
0.30454
0.30454
0.26482
0.30454
0.30454
0.26482
0.35022
0.23028
0.23028
0.26482
0.46317
0.30454
0.30454
0.33042
0.33042
0.33042
0.37998
0.33042
0.33042
0.37998
0.37998
0.33042
0.37998
0.28732
0.28732
0.43698
0.37998
0.23056
0.23056
0.23056
0.30491
0.17433
0.17433
0.17433
0.23056
0.17433
0.30491
0.26514
0.20048
0.23056
0.35065
0.26514
0.26514
0.27208
0.1789
0.4138
0.27208
0.31289
0.20573
0.1789
0.1789
0.31289
0.20573
0.23659
0.23659
0.23659
0.31289
0.23659
0.23659
0.32254
0.32254
0.28047
0.28047
0.32254
0.32254
0.28047
0.18441
0.42655
0.32254
0.28047
0.37092
0.32254
0.24388
0.32254
0.16036
0.35728
0.41088
0.35728
0.41088
0.47251
0.35728
0.62489
0.35728
0.47251
0.41088
0.41088
0.31068
0.35728
0.31068
0.41088
0.31068
0.60652
0.52741
0.60652
0.52741
0.45862
0.45862
0.52741
0.52741
0.60652
0.60652
0.60652
0.3988
0.45862
0.45862
0.52741
0.60652
0.16606
0.1444
0.16606
0.1444
0.1444
0.16606
0.16606
0.44173
0.16606
0.16606
0.25256
0.16606
0.1444
0.19097
0.16606
0.16606
0.27117
0.2358
0.31185
0.31185
0.47428
0.35862
0.41242
0.35862
0.47428
0.27117
0.31185
0.35862
0.27117
0.27117
0.47428
0.41242
0.30802
0.26784
0.30802
0.35422
0.30802
0.35422
0.40736
0.53873
0.35422
0.35422
0.46846
0.26784
0.46846
0.30802
0.30802
0.35422
0.1469
0.16894
0.16894
0.22342
0.11108
0.16894
0.19428
0.1469
0.39077
0.19428
0.19428
0.16894
0.19428
0.11108
0.16894
0.19428
0.18101
0.1574
0.20816
0.2753
0.31659
0.20816
0.1574
0.1574
0.18101
0.18101
0.13687
0.18101
0.18101
0.1574
0.20816
0.18101
0.60401
0.60401
0.39715
0.52523
0.52523
0.45672
0.45672
0.39715
0.60401
0.52523
0.52523
0.45672
0.45672
0.45672
0.45672
0.60401
0.1898
0.21826
0.1898
0.28866
0.28866
0.21826
0.21826
0.21826
0.33195
0.33195
0.43901
0.1898
0.251
0.251
0.28866
0.21826
0.26158
0.30082
0.30082
0.22746
0.13005
0.30082
0.1978
0.172
0.172
0.1978
0.26158
0.30082
0.18522
0.24496
0.18522
0.21301
0.2817
0.21301
0.21301
0.18522
0.18522
0.2817
0.2817
0.2817
0.21301
0.32395
0.37255
0.18522
0.24465
0.24465
0.37208
0.4279
0.28135
0.4279
0.32355
0.28135
0.28135
0.32355
0.24465
0.32355
0.37208
0.28135
0.28135
0.18499
0.56307
0.42577
0.32194
0.42577
0.42577
0.37023
0.56307
0.32194
0.37023
0.42577
0.56307
0.42577
0.37023
0.42577
0.27995
0.32194
0.33739
0.388
0.51313
0.388
0.33739
0.4462
0.388
0.33739
0.4462
0.388
0.33739
0.33739
0.5901
0.51313
0.388
0.388
0.33744
0.29343
0.33744
0.22187
0.29343
0.25516
0.22187
0.25516
0.25516
0.22187
0.44627
0.25516
0.25516
0.14589
0.33744
0.29343
0.33872
0.33872
0.25612
0.25612
0.29454
0.25612
0.33872
0.44795
0.25612
0.33872
0.29454
0.22271
0.2131
0.28182
0.2131
0.28182
0.28182
0.2131
0.28182
0.28182
0.24506
0.24506
0.37271
0.32409
0.37271
0.37271
0.56684
0.24506
0.20412
0.31044
0.23474
0.17749
0.20412
0.31044
0.23474
0.26995
0.23474
0.31044
0.31044
0.31044
0.23474
0.26995
0.23474
0.23474
0.16414
0.18876
0.21708
0.18876
0.21708
0.33015
0.24964
0.18876
0.33015
0.18876
0.21708
0.18876
0.21708
0.18876
0.18876
0.21708
0.39069
0.44929
0.33973
0.51669
0.51669
0.39069
0.39069
0.33973
0.25689
0.29542
0.33973
0.25689
0.33973
0.29542
0.25689
0.33973
0.48224
0.31708
0.41934
0.31708
0.27572
0.31708
0.36464
0.41934
0.41934
0.36464
0.31708
0.31708
0.41934
0.31708
0.31708
0.24934
0.18854
0.16395
0.21682
0.21682
0.12397
0.21682
0.16395
0.24934
0.18854
0.16395
0.16395
0.12397
0.24934
0.16395
0.14256
0.22912
0.34846
0.30301
0.22912
0.19923
0.26348
0.26348
0.22912
0.46084
0.30301
0.19923
0.26348
0.22912
0.22912
0.22912
0.22912
0.26031
0.22636
0.29936
0.29936
0.26031
0.22636
0.34426
0.26031
0.26031
0.52358
0.29936
0.34426
0.26031
0.34426
0.34426
0.34426
0.45899
0.34706
0.39912
0.34706
0.39912
0.52784
0.30179
0.34706
0.52784
0.26243
0.30179
0.39912
0.45899
0.39912
0.52784
0.45899
0.29171
0.22057
0.22057
0.29171
0.29171
0.25366
0.29171
0.33546
0.44365
0.38578
0.33546
0.33546
0.29171
0.38578
0.5102
0.25366
0.39953
0.52838
0.52838
0.52838
0.45946
0.3021
0.39953
0.45946
0.3021
0.3021
0.45946
0.3021
0.3021
0.22843
0.3021
0.45946
0.42171
0.42171
0.42171
0.42171
0.64137
0.36671
0.31888
0.36671
0.36671
0.36671
0.55771
0.42171
0.48497
0.54915
0.47752
0.54915
0.54915
0.41523
0.31398
0.47752
0.54915
0.41523
0.36107
0.41523
0.47752
0.54915
0.36107
0.36107
0.36107
0.41466
0.31354
0.23708
0.31354
0.41466
0.23708
0.23708
0.20616
0.31354
0.36057
0.31354
0.23708
0.36057
0.41466
0.41466
0.36057
0.52982
0.40062
0.40062
0.40062
0.34837
0.46071
0.34837
0.34837
0.40062
0.22906
0.34837
0.26341
0.34837
0.26341
0.34837
0.46071
0.43779
0.57897
0.43779
0.43779
0.33103
0.43779
0.50346
0.43779
0.50346
0.43779
0.50346
0.57897
0.43779
0.66582
0.38068
0.57897
0.21944
0.21944
0.21944
0.29021
0.25236
0.38381
0.38381
0.29021
0.25236
0.21944
0.29021
0.25236
0.33375
0.29021
0.33375
0.29021
0.35246
0.61646
0.30649
0.26651
0.26651
0.35246
0.30649
0.40533
0.40533
0.40533
0.30649
0.35246
0.40533
0.61646
0.35246
0.61646
0.25027
0.21763
0.21763
0.21763
0.18924
0.18924
0.25027
0.21763
0.21763
0.18924
0.21763
0.21763
0.21763
0.28781
0.21763
0.16456
0.22397
0.11135
0.14726
0.12806
0.11135
0.11135
0.096829
0.12806
0.096829
0.11135
0.11135
0.096829
0.11135
0.096829
0.11135
0.11135
0.12806
0.096829
0.096829
0.14726
0.11135
0.096829
0.096829
0.12806
0.11135
0.16935
0.11135
0.12806
0.35317
0.40615
0.46707
0.35317
0.53713
0.46707
0.6177
0.6177
0.53713
0.40615
0.40615
0.40615
0.40615
0.46707
0.40615
0.26705
0.46707
0.26705
0.46707
0.35317
0.46707
0.40615
0.35317
0.46707
0.30711
0.46707
0.26705
0.46707
0.35317
0.17412
0.23028
0.15141
0.26482
0.17412
0.26482
0.23028
0.26482
0.17412
0.26482
0.23028
0.20024
0.26482
0.23028
0.26482
0.23028
0.17412
0.23028
0.26482
0.30454
0.20024
0.20024
0.20024
0.20024
0.15141
0.23028
0.40276
0.20024
0.26482
0.23028
0.26482
0.20024
0.28732
0.24984
0.28732
0.24984
0.28732
0.28732
0.24984
0.33042
0.28732
0.24984
0.28732
0.24984
0.33042
0.24984
0.33042
0.24984
0.28732
0.28732
0.33042
0.28732
0.24984
0.24984
0.24984
0.24984
0.37998
0.24984
0.33042
0.28732
0.24984
0.20048
0.17433
0.20048
0.17433
0.17433
0.20048
0.26514
0.17433
0.1516
0.13182
0.1516
0.13182
0.11463
0.1516
0.20048
0.1516
0.1516
0.1516
0.26514
0.1516
0.23056
0.13182
0.1516
0.17433
0.20048
0.20048
0.30491
0.26514
0.17433
0.23056
0.1516
0.23056
0.15556
0.23659
0.15556
0.23659
0.35983
0.23659
0.23659
0.20573
0.27208
0.15556
0.1789
0.15556
0.15556
0.15556
0.15556
0.15556
0.27208
0.15556
0.1789
0.1789
0.20573
0.1789
0.20573
0.1789
0.20573
0.27208
0.1789
0.1789
0.20573
0.20573
0.20573
0.24388
0.28047
0.28047
0.18441
0.24388
0.21207
0.24388
0.21207
0.28047
0.24388
0.28047
0.21207
0.24388
0.18441
0.16036
0.16036
0.37092
0.18441
0.28047
0.24388
0.24388
0.24388
0.32254
0.21207
0.18441
0.28047
0.21207
0.18441
0.28047
0.16036
0.31068
0.31068
0.27016
0.35728
0.31068
0.27016
0.23492
0.35728
0.35728
0.41088
0.27016
0.31068
0.54338
0.27016
0.27016
0.31068
0.27016
0.41088
0.35728
0.23492
0.35728
0.31068
0.27016
0.23492
0.31068
0.17763
0.27016
0.20428
0.35728
0.27016
0.27016
0.27016
0.30155
0.52741
0.3988
0.45862
0.3988
0.52741
0.45862
0.34678
0.3988
0.3988
0.3988
0.34678
0.34678
0.45862
0.45862
0.34678
0.52741
0.45862
0.34678
0.52741
0.52741
0.45862
0.30155
0.34678
0.34678
0.3988
0.3988
0.34678
0.3988
0.45862
0.30155
0.52741
0.1444
0.10919
0.12557
0.12557
0.1444
0.10919
0.12557
0.10919
0.12557
0.10919
0.1444
0.1444
0.1444
0.12557
0.38412
0.12557
0.094947
0.1444
0.1444
0.1444
0.21962
0.16606
0.12557
0.1444
0.094947
0.12557
0.16606
0.12557
0.12557
0.1444
0.1444
0.12557
0.2358
0.2358
0.20504
0.20504
0.27117
0.20504
0.2358
0.27117
0.41242
0.27117
0.27117
0.31185
0.35862
0.31185
0.27117
0.31185
0.27117
0.41242
0.2358
0.20504
0.27117
0.2358
0.31185
0.31185
0.2358
0.2358
0.2358
0.20504
0.41242
0.35862
0.35862
0.27117
0.23291
0.26784
0.17611
0.23291
0.26784
0.26784
0.23291
0.30802
0.23291
0.26784
0.23291
0.30802
0.35422
0.35422
0.46846
0.30802
0.30802
0.26784
0.30802
0.26784
0.40736
0.23291
0.23291
0.23291
0.26784
0.40736
0.26784
0.23291
0.26784
0.20253
0.30802
0.30802
0.12774
0.12774
0.1469
0.12774
0.1469
0.11108
0.12774
0.19428
0.096592
0.096592
0.1469
0.11108
0.11108
0.16894
0.11108
0.12774
0.12774
0.3398
0.16894
0.11108
0.16894
0.12774
0.11108
0.1469
0.1469
0.16894
0.096592
0.096592
0.1469
0.12774
0.16894
0.16894
0.1574
0.1574
0.13687
0.11902
0.13687
0.18101
0.23939
0.1574
0.20816
0.2753
0.18101
0.13687
0.13687
0.13687
0.11902
0.1574
0.13687
0.13687
0.1574
0.11902
0.11902
0.1574
0.13687
0.1574
0.13687
0.13687
0.11902
0.18101
0.13687
0.11902
0.1574
0.45672
0.52523
0.52523
0.34535
0.34535
0.34535
0.45672
0.34535
0.45672
0.45672
0.39715
0.39715
0.39715
0.34535
0.34535
0.34535
0.52523
0.34535
0.45672
0.45672
0.45672
0.34535
0.39715
0.34535
0.39715
0.34535
0.34535
0.39715
0.39715
0.39715
0.52523
0.52523
0.16504
0.16504
0.16504
0.1898
0.16504
0.16504
0.251
0.16504
0.251
0.16504
0.1898
0.1898
0.1898
0.14351
0.1898
0.28866
0.251
0.16504
0.28866
0.38175
0.1898
0.16504
0.16504
0.21826
0.21826
0.21826
0.21826
0.21826
0.251
0.1898
0.1898
0.22746
0.1978
0.30082
0.26158
0.14956
0.26158
0.1978
0.13005
0.1978
0.14956
0.11309
0.26158
0.14956
0.172
0.172
0.13005
0.14956
0.14956
0.14956
0.172
0.11309
0.22746
0.14956
0.26158
0.172
0.16106
0.16106
0.21301
0.16106
0.16106
0.16106
0.16106
0.18522
0.14005
0.24496
0.18522
0.18522
0.18522
0.18522
0.16106
0.16106
0.16106
0.16106
0.24496
0.21301
0.24496
0.21301
0.18522
0.24496
0.14005
0.18522
0.2817
0.18522
0.24496
0.32395
0.16106
0.16106
0.21274
0.21274
0.13988
0.21274
0.32355
0.21274
0.24465
0.37208
0.24465
0.21274
0.21274
0.37208
0.28135
0.28135
0.24465
0.21274
0.18499
0.24465
0.28135
0.24465
0.21274
0.18499
0.28135
0.21274
0.18499
0.32355
0.24465
0.18499
0.24465
0.21274
0.16086
0.16086
0.37023
0.48963
0.27995
0.37023
0.27995
0.27995
0.37023
0.37023
0.37023
0.27995
0.27995
0.32194
0.48963
0.48963
0.27995
0.27995
0.32194
0.32194
0.37023
0.24343
0.27995
0.48963
0.37023
0.32194
0.24343
0.32194
0.27995
0.37023
0.18407
0.24343
0.24343
0.27995
0.29338
0.25511
0.33739
0.25511
0.4462
0.33739
0.33739
0.29338
0.29338
0.29338
0.388
0.29338
0.33739
0.33739
0.29338
0.29338
0.388
0.25511
0.25511
0.33739
0.29338
0.25511
0.29338
0.25511
0.388
0.51313
0.4462
0.388
0.33739
0.29338
0.25511
0.33739
0.19293
0.29343
0.25516
0.25516
0.19293
0.29343
0.19293
0.19293
0.19293
0.25516
0.16777
0.22187
0.19293
0.22187
0.22187
0.22187
0.19293
0.19293
0.19293
0.38806
0.29343
0.22187
0.19293
0.22187
0.19293
0.29343
0.19293
0.19293
0.25516
0.29454
0.25612
0.29454
0.22271
0.19366
0.22271
0.22271
0.19366
0.25612
0.25612
0.19366
0.22271
0.25612
0.29454
0.19366
0.38952
0.19366
0.22271
0.25612
0.29454
0.25612
0.25612
0.19366
0.19366
0.1853
0.16113
0.24506
0.2131
0.16113
0.1853
0.24506
0.2131
0.1853
0.24506
0.1853
0.16113
0.1853
0.24506
0.24506
0.1853
0.2131
0.2131
0.1853
0.2131
0.2131
0.32409
0.24506
0.28182
0.24506
0.32409
0.24506
0.32409
0.24506
0.49291
0.2131
0.2131
0.17749
0.17749
0.26995
0.17749
0.17749
0.20412
0.15434
0.15434
0.17749
0.17749
0.26995
0.15434
0.20412
0.20412
0.15434
0.23474
0.20412
0.20412
0.17749
0.26995
0.26995
0.20412
0.26995
0.26995
0.20412
0.17749
0.23474
0.17749
0.20412
0.20412
0.20412
0.20412
0.10793
0.14273
0.16414
0.12412
0.18876
0.14273
0.16414
0.10793
0.16414
0.18876
0.18876
0.28709
0.21708
0.18876
0.16414
0.12412
0.21708
0.28709
0.16414
0.16414
0.14273
0.18876
0.16414
0.12412
0.093849
0.18876
0.16414
0.16414
0.14273
0.16414
0.18876
0.14273
0.33973
0.33973
0.39069
0.39069
0.29542
0.25689
0.25689
0.44929
0.39069
0.44929
0.29542
0.33973
0.29542
0.33973
0.29542
0.29542
0.22338
0.22338
0.25689
0.16891
0.29542
0.25689
0.22338
0.22338
0.29542
0.29542
0.25689
0.25689
0.22338
0.22338
0.29542
0.29542
0.41934
0.27572
0.23976
0.31708
0.36464
0.27572
0.27572
0.23976
0.23976
0.23976
0.27572
0.27572
0.31708
0.36464
0.27572
0.31708
0.36464
0.31708
0.27572
0.27572
0.27572
0.27572
0.27572
0.36464
0.31708
0.23976
0.27572
0.27572
0.23976
0.093737
0.21682
0.16395
0.12397
0.12397
0.14256
0.16395
0.18854
0.14256
0.18854
0.1078
0.08151
0.18854
0.14256
0.14256
0.1078
0.21682
0.12397
0.12397
0.16395
0.14256
0.12397
0.1078
0.14256
0.1078
0.1078
0.21682
0.14256
0.093737
0.14256
0.093737
0.12397
0.19923
0.19923
0.30301
0.26348
0.22912
0.26348
0.19923
0.19923
0.17325
0.131
0.22912
0.22912
0.22912
0.15065
0.19923
0.40073
0.19923
0.26348
0.17325
0.17325
0.15065
0.19923
0.22912
0.19923
0.17325
0.19923
0.15065
0.17325
0.19923
0.19923
0.19923
0.19683
0.22636
0.19683
0.17116
0.26031
0.19683
0.26031
0.22636
0.22636
0.17116
0.19683
0.19683
0.19683
0.29936
0.22636
0.22636
0.22636
0.22636
0.45529
0.45529
0.22636
0.26031
0.26031
0.29936
0.22636
0.19683
0.29936
0.22636
0.19683
0.29936
0.29936
0.19683
0.30179
0.39912
0.30179
0.30179
0.2282
0.34706
0.30179
0.30179
0.34706
0.30179
0.45899
0.39912
0.2282
0.26243
0.30179
0.30179
0.39912
0.45899
0.2282
0.2282
0.26243
0.26243
0.26243
0.34706
0.39912
0.26243
0.34706
0.30179
0.45899
0.39912
0.39912
0.30179
0.25366
0.22057
0.25366
0.25366
0.22057
0.25366
0.22057
0.22057
0.25366
0.25366
0.29171
0.22057
0.25366
0.38578
0.33546
0.29171
0.29171
0.25366
0.29171
0.29171
0.25366
0.22057
0.33546
0.25366
0.44365
0.29171
0.22057
0.22057
0.34742
0.34742
0.34742
0.45946
0.45946
0.2627
0.39953
0.45946
0.2627
0.39953
0.2627
0.22843
0.34742
0.34742
0.39953
0.2627
0.19864
0.2627
0.22843
0.2627
0.39953
0.34742
0.2627
0.2627
0.22843
0.2627
0.17273
0.19864
0.19864
0.2627
0.39953
0.34742
0.36671
0.36671
0.36671
0.36671
0.31888
0.36671
0.36671
0.31888
0.36671
0.31888
0.31888
0.55771
0.31888
0.31888
0.31888
0.31888
0.31888
0.31888
0.31888
0.31888
0.36671
0.48497
0.36671
0.42171
0.36671
0.47752
0.31398
0.41523
0.31398
0.47752
0.36107
0.47752
0.36107
0.36107
0.36107
0.27302
0.27302
0.41523
0.31398
0.47752
0.31398
0.31398
0.36107
0.31398
0.31398
0.27302
0.36107
0.31398
0.41523
0.41523
0.47752
0.27302
0.31398
0.31398
0.27302
0.31398
0.31398
0.36057
0.20616
0.20616
0.27264
0.20616
0.17927
0.20616
0.27264
0.17927
0.36057
0.20616
0.17927
0.20616
0.20616
0.17927
0.15589
0.23708
0.27264
0.27264
0.31354
0.27264
0.27264
0.20616
0.20616
0.31354
0.27264
0.36057
0.31354
0.36057
0.27264
0.27264
0.31354
0.46071
0.46071
0.30293
0.34837
0.34837
0.30293
0.34837
0.30293
0.30293
0.26341
0.34837
0.40062
0.26341
0.30293