# vtk DataFile Version 3.0
vtk output
ASCII
DATASET POLYDATA
POINTS 72102 float
-6.3678 -140.59 -50.771
-6.3696 -140.59 -50.782
-6.3696 -140.59 -50.782
-6.4666 -140.32 -51.474
-6.4705 -140.3 -51.506
-6.5167 -140.12 -51.924
-6.5316 -140.07 -52.037
-6.5352 -140.07 -52.071
-6.4956 -139.91 -52.535
-6.4602 -139.74 -52.896
-6.4595 -139.74 -52.911
-6.4192 -139.56 -53.382
-6.4098 -139.49 -53.542
-6.4078 -139.48 -53.563
-6.4562 -139.31 -53.888
-6.5439 -138.93 -54.737
-6.5523 -138.9 -54.802
-6.6363 -138.51 -55.661
-6.6797 -138.33 -56.018
-6.6551 -138.23 -56.183
-6.6353 -138.14 -56.404
-6.6239 -138.05 -56.735
-6.6198 -137.98 -56.906
-6.6183 -137.97 -56.931
-6.5899 -137.85 -57.14
-6.5661 -137.71 -57.387
-6.5426 -137.49 -57.709
-6.5402 -137.46 -57.752
-6.5316 -137.33 -57.936
-6.5247 -137.12 -58.252
-6.5215 -137.07 -58.32
-6.519 -136.99 -58.446
-6.519 -136.99 -58.447
-6.5246 -136.67 -58.925
-6.5466 -136.28 -59.648
-6.6104 -135.67 -60.714
-6.597 -135.64 -60.788
-6.5286 -135.49 -61.244
-6.5273 -135.49 -61.252
-6.5273 -135.49 -61.252
-6.5053 -135.42 -61.395
-6.4958 -135.4 -61.448
-6.4072 -135.16 -61.883
-6.3192 -134.94 -62.236
-6.2956 -134.86 -62.407
-6.2588 -134.74 -62.611
-6.2518 -134.71 -62.689
-6.196 -134.52 -63.059
-6.1301 -134.27 -63.55
-6.1269 -134.26 -63.561
-6.0527 -134.14 -63.78
-5.9299 -133.83 -64.321
-5.9196 -133.81 -64.377
-5.8327 -133.68 -64.779
-5.7606 -133.58 -65.08
-5.7525 -133.57 -65.109
-5.707 -133.51 -65.28
-5.6256 -133.43 -65.628
-5.6248 -133.43 -65.631
-5.6248 -133.43 -65.631
-5.5549 -133.39 -65.95
-5.4818 -133.3 -66.136
-5.3969 -133.21 -66.36
-5.3697 -133.18 -66.425
-5.2258 -132.99 -66.824
-5.2183 -132.98 -66.85
-5.21 -132.96 -66.876
-5.1949 -132.93 -66.987
-5.1794 -132.89 -67.069
-5.1521 -132.8 -67.246
-5.102 -132.62 -67.622
-4.9364 -132.33 -68.078
-4.8785 -132.21 -68.271
-4.844 -132.15 -68.376
-4.7989 -132.08 -68.52
-4.6782 -131.84 -68.932
-4.6599 -131.8 -69.007
-4.5839 -131.66 -69.287
-4.4533 -131.33 -70.007
-4.4386 -131.31 -70.049
-4.1356 -131.05 -70.758
-3.9745 -130.89 -71.153
-3.6434 -130.6 -72.287
-3.596 -130.55 -72.384
-3.4512 -130.37 -72.674
-3.3057 -130.24 -73.002
-3.2449 -130.12 -73.404
-3.2039 -130.05 -73.655
-3.1881 -130.02 -73.774
-3.0465 -129.85 -74.875
-3.0356 -129.82 -74.972
-3.0037 -129.78 -75.234
-2.9981 -129.77 -75.292
-2.9789 -129.75 -75.468
-2.9626 -129.71 -75.697
-2.9279 -129.64 -76.13
-2.9306 -129.63 -76.162
-2.9222 -129.59 -76.328
-2.8982 -129.52 -76.659
-2.8809 -129.48 -76.846
-2.878 -129.47 -76.887
-2.756 -129.31 -77.571
-2.7121 -129.25 -77.809
-2.539 -128.85 -78.975
-2.5208 -128.8 -79.104
-2.5185 -128.79 -79.134
-2.5111 -128.76 -79.203
-2.5033 -128.61 -79.531
-2.5027 -128.61 -79.548
-2.5092 -128.32 -80.361
-2.5274 -127.84 -81.45
-2.5277 -127.84 -81.459
-2.2789 -127.7 -82.538
-2.2302 -127.65 -82.707
-2.0416 -127.5 -83.31
-1.9907 -127.28 -83.604
-1.9243 -126.95 -84.01
-1.916 -126.91 -84.067
-1.8525 -126.72 -84.369
-1.817 -126.63 -84.516
-1.7317 -126.39 -84.904
-1.7028 -126.3 -85.062
-1.6671 -126.21 -85.186
-1.5977 -126.05 -85.399
-1.5186 -125.87 -85.617
-1.4796 -125.77 -85.745
-1.4649 -125.74 -85.786
-1.4648 -125.74 -85.787
-1.4509 -125.71 -85.823
-1.4063 -125.64 -85.919
-1.269 -125.49 -86.162
-1.1963 -125.41 -86.307
-1.1046 -125.35 -86.454
-0.81468 -125.17 -86.893
-0.76746 -125.15 -86.972
-0.5867 -125.03 -87.252
-0.50741 -124.97 -87.412
-0.50645 -124.97 -87.414
-0.41623 -124.89 -87.627
-0.36844 -124.86 -87.734
-0.36824 -124.86 -87.735
-0.32316 -124.84 -87.822
-0.28921 -124.83 -87.893
0.015358 -124.6 -88.344
0.20482 -124.23 -88.778
0.24026 -124.15 -88.866
0.43894 -123.75 -89.312
0.53755 -123.53 -89.536
0.88245 -122.83 -90.186
0.91325 -122.77 -90.247
1.0171 -122.52 -90.478
1.2284 -121.98 -91.2
1.2658 -121.84 -91.498
1.3657 -121.31 -92.263
1.3311 -121.2 -92.45
1.3114 -121 -92.689
1.301 -120.92 -92.789
1.301 -120.91 -92.79
1.2135 -120.29 -93.659
1.1674 -120.08 -94.008
1.1639 -120.04 -94.045
1.1652 -119.99 -94.097
1.1745 -119.91 -94.19
1.1859 -119.87 -94.23
1.2304 -119.71 -94.4
1.4594 -118.89 -95.737
1.5561 -118.83 -95.877
1.5645 -118.82 -95.892
1.6031 -118.81 -95.96
1.9046 -118.57 -96.528
1.9758 -118.51 -96.672
1.997 -118.49 -96.712
2.0484 -118.45 -96.805
2.1871 -118.32 -97.084
2.2963 -118.22 -97.295
2.4258 -118.1 -97.559
2.5907 -117.96 -97.869
2.8756 -117.88 -98.337
3.184 -117.85 -98.712
3.3728 -117.82 -98.905
3.3778 -117.82 -98.91
3.8175 -117.72 -99.374
3.9059 -117.66 -99.48
4.3999 -117.37 -100.25
4.6044 -117.27 -100.58
4.7043 -117.22 -100.75
4.8621 -117.13 -101.08
4.9046 -117.1 -101.15
5.0218 -117.02 -101.28
5.0307 -117.02 -101.3
5.0656 -116.99 -101.34
5.4441 -116.8 -101.76
5.491 -116.77 -101.81
5.8608 -116.6 -102.18
6.0987 -116.47 -102.46
6.1215 -116.46 -102.48
6.1599 -116.43 -102.52
6.5085 -116.31 -102.8
6.5701 -116.3 -102.85
6.8542 -116.21 -103.07
7.2844 -116.06 -103.39
7.3594 -116.03 -103.44
7.554 -115.96 -103.57
7.5639 -115.96 -103.58
7.6553 -115.91 -103.63
7.6672 -115.91 -103.63
8.2981 -115.67 -104.07
8.4542 -115.62 -104.18
9.1707 -115.36 -104.56
9.3831 -115.31 -104.69
9.7024 -115.26 -104.86
9.7529 -115.25 -104.89
9.9376 -115.21 -104.95
9.9608 -115.21 -104.96
10.005 -115.2 -104.98
10.612 -115 -105.27
10.667 -114.97 -105.28
10.8 -114.93 -105.35
10.942 -114.89 -105.4
11.159 -114.85 -105.46
11.345 -114.81 -105.51
11.453 -114.8 -105.54
11.649 -114.76 -105.59
11.718 -114.75 -105.61
11.718 -114.75 -105.61
11.966 -114.72 -105.69
12.162 -114.7 -105.73
12.545 -114.66 -105.9
12.645 -114.65 -105.95
12.697 -114.64 -105.98
12.697 -114.64 -105.98
13.291 -114.56 -106.36
13.31 -114.56 -106.37
13.336 -114.55 -106.39
13.426 -114.54 -106.45
13.583 -114.51 -106.53
14.011 -114.4 -106.77
14.013 -114.4 -106.77
14.21 -114.34 -106.9
14.353 -114.3 -106.99
14.628 -114.2 -107.12
14.728 -114.17 -107.16
14.838 -114.14 -107.2
15.032 -114.11 -107.29
15.259 -114.07 -107.39
15.415 -114.06 -107.44
15.506 -114.05 -107.47
15.518 -114.05 -107.47
15.816 -114.04 -107.55
16.055 -114.04 -107.61
16.162 -114.04 -107.64
16.224 -114.04 -107.66
16.385 -114.03 -107.7
16.747 -114.04 -107.96
16.823 -114.05 -108.02
16.939 -114.05 -108.1
17.104 -114.05 -108.21
17.648 -114 -108.53
18.175 -113.91 -108.78
18.222 -113.91 -108.79
18.609 -113.9 -108.94
18.633 -113.9 -108.95
18.633 -113.9 -108.95
19.116 -113.96 -109.15
19.199 -113.97 -109.21
19.425 -114.01 -109.34
19.818 -114.07 -109.64
20.222 -114.13 -109.9
20.546 -114.19 -110.09
20.619 -114.2 -110.14
20.742 -114.23 -110.21
20.885 -114.26 -110.31
21.148 -114.33 -110.51
21.204 -114.34 -110.55
21.415 -114.35 -110.65
21.841 -114.36 -110.9
21.88 -114.37 -110.94
21.88 -114.37 -110.94
22.278 -114.4 -111.14
22.39 -114.41 -111.22
22.543 -114.44 -111.3
22.583 -114.45 -111.33
22.758 -114.48 -111.39
22.809 -114.49 -111.42
23.073 -114.58 -111.62
23.131 -114.6 -111.67
23.186 -114.62 -111.7
23.335 -114.65 -111.78
23.566 -114.73 -111.94
23.758 -114.79 -112.06
24.183 -114.89 -112.41
24.204 -114.9 -112.44
24.627 -115 -112.9
24.739 -114.99 -113.02
24.894 -114.98 -113.2
24.97 -114.98 -113.3
25.14 -114.98 -113.53
25.476 -115.01 -113.94
25.492 -115.02 -113.96
25.764 -114.98 -114.18
25.871 -114.95 -114.29
25.88 -114.94 -114.3
26.24 -114.74 -114.58
26.301 -114.71 -114.62
26.478 -114.62 -114.74
26.561 -114.58 -114.8
26.635 -114.55 -114.85
26.926 -114.41 -115.07
26.941 -114.4 -115.08
27.08 -114.3 -115.21
27.24 -114.2 -115.31
27.317 -114.15 -115.38
27.368 -114.11 -115.43
27.404 -114.09 -115.48
27.457 -114.05 -115.53
27.549 -114 -115.58
27.681 -113.93 -115.68
27.686 -113.93 -115.68
27.686 -113.93 -115.68
27.83 -113.85 -115.84
27.831 -113.85 -115.84
27.876 -113.82 -115.89
27.876 -113.82 -115.89
27.883 -113.82 -115.9
28.078 -113.72 -116.08
28.201 -113.67 -116.22
28.202 -113.67 -116.22
28.247 -113.65 -116.29
28.403 -113.59 -116.46
28.477 -113.56 -116.55
28.491 -113.56 -116.57
28.604 -113.53 -116.69
28.607 -113.53 -116.69
28.734 -113.49 -116.83
28.734 -113.49 -116.83
28.814 -113.47 -116.93
28.874 -113.45 -116.99
29.028 -113.42 -117.17
29.351 -113.35 -117.68
29.37 -113.35 -117.72
29.611 -113.15 -118.16
29.66 -113.11 -118.23
29.921 -112.92 -118.64
29.959 -112.89 -118.69
30.062 -112.82 -118.85
30.103 -112.77 -118.9
30.263 -112.66 -119.14
30.514 -112.43 -119.58
30.528 -112.42 -119.6
30.534 -112.42 -119.62
30.631 -112.34 -119.79
30.649 -112.33 -119.82
30.724 -112.22 -120
30.739 -112.19 -120.04
30.752 -112.16 -120.11
30.755 -112.15 -120.12
30.881 -111.94 -120.4
30.997 -111.73 -120.64
30.998 -111.73 -120.64
31.049 -111.68 -120.7
31.098 -111.61 -120.79
31.229 -111.43 -121.06
31.235 -111.4 -121.11
31.423 -111.07 -121.48
31.493 -110.98 -121.59
31.554 -110.92 -121.66
31.802 -110.61 -122.11
31.853 -110.54 -122.2
32.026 -110.32 -122.44
32.028 -110.32 -122.44
32.106 -110.09 -122.75
32.175 -109.88 -123.04
32.236 -109.74 -123.24
32.269 -109.7 -123.35
32.293 -109.64 -123.49
32.319 -109.61 -123.61
32.382 -109.58 -123.82
32.382 -109.58 -123.82
32.383 -109.58 -123.84
32.406 -109.64 -124.06
32.468 -109.68 -124.27
32.544 -109.72 -124.49
32.659 -109.77 -124.81
32.679 -109.78 -124.86
32.679 -109.78 -124.86
32.733 -109.8 -125
32.762 -109.81 -125.07
32.803 -109.81 -125.17
33.055 -109.78 -125.68
33.058 -109.78 -125.69
33.114 -109.78 -125.8
33.154 -109.78 -125.87
33.259 -109.77 -126.03
33.389 -109.73 -126.24
33.402 -109.72 -126.27
33.428 -109.71 -126.31
33.469 -109.69 -126.38
33.716 -109.55 -126.78
33.717 -109.54 -126.78
33.813 -109.5 -126.95
33.92 -109.45 -127.1
34.023 -109.42 -127.26
34.041 -109.42 -127.29
34.208 -109.33 -127.56
34.314 -109.3 -127.72
34.416 -109.24 -127.9
34.494 -109.2 -128.02
34.504 -109.19 -128.04
34.562 -109.18 -128.16
34.592 -109.17 -128.23
34.632 -109.14 -128.33
34.65 -109.11 -128.41
34.65 -109.11 -128.41
34.665 -109.1 -128.48
34.702 -109.06 -128.64
34.71 -109.05 -128.66
34.79 -109.01 -128.84
34.797 -109.01 -128.86
34.878 -108.96 -129.13
34.958 -108.92 -129.47
35.08 -108.88 -129.86
35.223 -108.85 -130.18
35.241 -108.82 -130.26
35.275 -108.77 -130.36
35.446 -108.54 -131
35.482 -108.5 -131.09
35.582 -108.36 -131.48
35.633 -108.31 -131.69
35.632 -108.3 -131.73
35.658 -108.26 -131.84
35.66 -108.26 -131.85
[...]
POINT_DATA 72102
SCALARS radius double 
LOOKUP_TABLE default 
6.2311
6.2293
6.2293
6.1537
6.1519
6.1406
6.1384
6.1377
6.0728
6.0103
6.0093
5.9714
5.9639
5.9619
5.8738
5.6942
5.6863
5.633
5.6478
5.6211
5.5923
5.5604
5.5456
5.5428
5.5131
5.4804
5.4409
5.4372
5.424
5.4176
5.4049
5.3837
5.3835
5.3231
5.3393
5.5428
5.5421
5.5279
5.5278
5.5278
5.5268
5.5258
5.5396
5.5672
5.584
5.5977
5.6043
5.6432
5.7209
5.7212
5.7249
5.7052
5.7062
5.7231
5.7498
5.7526
5.77
5.8177
5.8182
5.8182
5.8686
5.8978
5.934
5.9468
6.0075
6.0091
6.0104
6.0142
6.0156
6.0164
6.0162
5.9979
5.9989
6.0008
6.0028
6.0309
6.0358
6.0614
6.1623
6.1634
6.1594
6.1885
6.3184
6.3394
6.4014
6.4582
6.4416
6.4412
6.442
6.5226
6.5403
6.5793
6.5865
6.6088
6.6244
6.669
6.6685
6.6515
6.625
6.6141
6.6119
6.538
6.5257
6.5824
6.6022
6.6059
6.6141
6.6317
6.6326
6.7174
6.9478
6.9494
6.9719
6.9702
6.982
6.8868
6.7399
6.7178
6.596
6.539
6.4109
6.369
6.3268
6.2552
6.1863
6.1528
6.1411
6.141
6.1302
6.0938
5.9857
5.9296
5.8562
5.649
5.6167
5.5051
5.4485
5.4478
5.3802
5.3466
5.3464
5.3124
5.2854
5.0858
4.7758
4.7153
4.4299
4.3029
4.0277
4.0141
3.9623
3.9072
3.9116
3.9949
3.9927
4.0127
4.0264
4.0264
4.2552
4.3813
4.3971
4.4148
4.4424
4.4493
4.4808
4.8206
4.8135
4.8131
4.8116
4.766
4.7634
4.7626
4.761
4.7587
4.7572
4.7666
4.7881
4.7221
4.6421
4.6105
4.6101
4.5851
4.5535
4.4627
4.4676
4.4734
4.5006
4.5076
4.5193
4.5178
4.5049
4.3967
4.3851
4.3441
4.3079
4.3049
4.3003
4.2026
4.1893
4.1311
4.0944
4.0931
4.0917
4.0909
4.0828
4.0807
4.0037
4.0004
4.0552
4.0654
4.0871
4.0909
4.1065
4.1089
4.1101
4.1562
4.1586
4.1424
4.1202
4.0914
4.0665
4.0535
4.031
4.0244
4.0243
4.0038
3.9891
3.9651
3.9617
3.9584
3.9584
3.9804
3.9823
3.9851
3.9953
4.0027
4.044
4.0442
4.0813
4.0881
4.1019
4.0994
4.096
4.0866
4.0802
4.0688
4.0627
4.0616
4.0424
4.0304
4.0271
4.0253
4.0188
3.9839
3.9825
3.9801
3.9797
4.0107
4.0575
4.0614
4.0535
4.0508
4.0508
3.9898
3.9821
3.9632
3.9635
3.9965
4.0375
4.0496
4.0671
4.0903
4.1499
4.1595
4.162
4.1874
4.191
4.191
4.2111
4.2201
4.2333
4.2364
4.25
4.2514
4.2533
4.2535
4.2572
4.2661
4.2783
4.2959
4.2755
4.2747
4.2806
4.2652
4.2428
4.2316
4.2108
4.2072
4.2075
4.1534
4.1203
4.1149
3.8993
3.8697
3.7826
3.7415
3.7127
3.5895
3.5828
3.4881
3.4015
3.3551
3.323
3.2975
3.2658
3.2203
3.155
3.1523
3.1523
3.0724
3.0718
3.0477
3.0476
3.0435
2.9538
2.8985
2.8982
2.8769
2.8236
2.8017
2.7971
2.7674
2.7666
2.7397
2.7396
2.7252
2.7188
2.7068
2.7258
2.7284
2.6661
2.6632
2.6762
2.682
2.696
2.6904
2.6374
2.5929
2.5929
2.5936
2.5944
2.5941
2.5685
2.5612
2.5513
2.5505
2.504
2.4865
2.4865
2.4816
2.477
2.4808
2.4831
2.4642
2.4708
2.4723
2.5114
2.5267
2.5703
2.5706
2.6121
2.6791
2.7444
2.7567
2.7645
2.7677
2.7442
2.7439
2.7391
2.6597
2.5841
2.5203
2.432
2.42
2.4199
2.3878
2.3719
2.3499
2.2456
2.2449
2.2331
2.2256
2.2127
2.1968
2.1948
2.1903
2.1805
2.1546
2.1545
2.1525
2.1541
2.1478
2.1456
2.1364
2.1442
2.1612
2.1751
2.1747
2.1668
2.1602
2.1426
2.1277
2.1275
2.1127
2.0842
2.0804
2.05
2.0473
2.0062
1.9754
1.9547
1.9499
1.9361
1.9173
1.8992
1.9028
1.9515
1.9927
2.0001
2.0171
2.0181
2.0088
2.0026
1.9981
1.9977
1.9953
1.9946
1.9891
1.9888
2
2.0103
2.0594
2.0595
2.0754
2.0729
2.0728
2.0808
2.0809
2.0809
2.0844
2.0852
2.085
2.0849
2.0858
2.1046
2.1046
2.163
2.167
2.2242
2.2323
2.2379
2.2684
2.2653
2.2556
2.2457
2.1778
2.1552
2.0949
2.0939
2.0881
2.088
2.0434
2.0226
2.0061
2.0056
1.9712
1.9689
1.9514
1.8905
1.8898
1.8326
1.8321
1.7698
1.7581
1.7579
1.7492
1.7483
1.7178
1.7149
1.6882
1.6365
1.6363
1.6161
1.5895
1.5856
1.5854
1.5789
1.5734
1.5599
1.5501
1.5139
1.5137
1.5005
1.4794
1.4788
1.4552
1.4495
1.4494
1.4189
1.4032
1.3825
1.3598
1.3583
1.3533
1.3513
1.3519
1.353
1.3791
1.4073
1.4288
1.4953
1.4998
1.5172
1.5296
1.533
1.509
1.4778
1.4432
1.4252
1.4196
1.4189
1.4225
1.4234
1.4316
1.4321
1.4467
1.4656
1.4776
1.4827
1.5692
1.5964
1.596
1.596
1.5939
1.5917
1.5871
1.5798
1.5722
1.5682
1.5603
1.5602
1.5266
1.5228
1.5144
1.5268
1.5519
1.5604
1.6234
1.6325
1.6304
1.6311
1.632
1.6313
1.6076
1.6045
1.6044
1.5997
1.5993
1.5878
1.579
1.5783
1.5617
1.5385
1.5379
1.5247
1.5144
1.5143
1.5056
1.5096
1.5095
1.5073
1.4926
1.4858
1.48
1.4441
1.4423
1.4343
1.4332
1.4217
1.4532
1.4812
1.4824
1.4834
1.4834
1.4915
1.4977
1.5084
1.5085
1.5956
1.6659
1.6767
1.6793
1.6813
1.6867
1.7415
1.7452
1.7722
1.7668
1.7646
1.7446
1.7323
1.7304
1.7179
1.707
1.7032
1.6949
1.6885
1.6791
1.6791
1.6587
1.6492
1.559
1.5491
1.5175
1.4866
1.4585
1.3043
1.2556
1.1831
1.1804
1.1031
1.0972
1.0971
1.0931
1.0884
1.043
1.0429
1.0416
1.0317
0.97293
0.95673
0.87776
0.85367
0.83441
0.84012
0.84181
0.84473
0.8867
0.88966
0.89524
0.87902
0.85041
0.84682
0.84233
0.81441
0.82417
0.82488
0.82407
0.8202
0.822
0.82459
0.82211
0.79757
0.77758
0.77756
0.75084
0.7455
0.74281
0.74255
0.7288
0.72883
0.72883
0.73901
0.74443
0.76179
0.76444
0.78784
0.8078
0.82293
0.82342
0.82257
0.82441
0.80949
0.80883
0.79515
0.79432
0.78798
0.7801
0.76749
0.74687
0.72672
0.72025
0.72021
0.70846
0.70724
0.69473
0.68806
0.66634
0.65518
0.65471
0.63317
0.63765
0.64885
0.64975
0.63943
0.63829
0.61815
0.60428
0.58386
0.5726
0.58271
0.64674
0.65981
0.67909
0.67997
0.67466
0.64645
0.63522
0.63441
0.63233
0.64994
0.69858
0.70086
0.71567
0.72525
0.72535
0.72308
0.71689
0.68889
0.66248
0.64682
0.64126
0.63954
0.63531
0.63465
0.62884
0.6285
0.62097
0.62053
0.6133
0.61135
0.58922
0.59187
0.58421
0.58138
0.74802
0.74994
0.77265
0.77272
0.79544
0.81464
0.81744
0.81832
0.83066
0.83084
0.83048
0.82735
0.82122
0.81482
0.80167
0.77063
0.77017
0.69492
0.68683
0.6844
0.66245
0.64363
0.64783
0.64765
0.61948
0.62179
0.60461
0.60306
0.59854
0.58418
0.56631
0.5368
0.50443
0.49994
0.49989
0.4931
0.49308
1.7264
1.7294
1.745
1.7536
1.7592
1.7737
1.7777
1.7789
1.7877
1.7868
1.7891
1.7944
1.7904
1.7908
1.7667
1.7522
1.7483
1.7243
1.6507
1.6391
1.6283
1.5709
1.5437
1.5372
1.4897
1.4817
1.4685
1.4684
1.396
1.3808
1.3063
1.2978
1.2849
1.2632
1.2526
1.2285
1.2126
1.1936
1.1761
1.1754
1.1598
1.1325
1.1146
1.1232
1.1397
1.1438
1.1448
1.1448
1.1509
1.1529
1.1499
1.1436
1.113
1.073
1.059
1.0579
1.058
1.058
1.0477
1.0477
1.0347
1.0323
1.0088
0.9924
0.98477
0.96876
0.9687
0.9606
0.95825
0.91183
0.88669
0.8676
0.86729
0.85483
0.83222
0.80553
0.79993
1.5096
1.5094
1.5071
1.4942
1.4856
1.4782
1.4439
1.443
1.4338
1.4347
1.4612
1.4779
1.5074
1.5098
1.5114
1.5092
1.4951
1.4917
1.4839
1.4815
1.4969
1.5522
1.5595
1.6172
1.6267
1.6321
1.652
1.6597
1.6592
1.6437
1.5851
1.518
1.4845
1.4812
1.4314
1.4301
1.3486
1.3483
1.3262
1.3261
1.2697
1.269
1.2555
1.2554
1.2295
1.2294
1.2228
1.1605
1.1562
1.0587
1.0113
0.978
0.89292
0.85487
0.84945
0.80949
0.76657
0.74758
0.7304
0.72382
0.72376
0.72375
0.72381
0.75084
0.75388
0.75659
0.77237
0.77718
0.7831
0.784
0.78917
0.79186
0.79685
0.7989
0.80055
0.81273
0.82202
0.82295
0.83044
0.8309
0.83132
0.83469
0.83562
0.84562
0.8464
0.84518
0.84273
0.84254
0.83684
0.81751
0.78309
0.73449
0.7338
0.74857
0.75413
0.77152
0.77252
0.76804
0.76682
0.71998
0.70904
0.70123
0.69361
0.68808
0.68172
0.67493
0.66219
0.654
0.65371
0.65615
0.65717
0.65782
0.65754
0.65422
0.6549
0.68532
0.68536
0.6899
0.71059
0.72141
0.7216
0.70078
0.69301
0.68787
0.68785
0.69287
0.68427
0.68388
0.68183
0.67539
0.67453
0.62903
0.61828
0.61005
0.5942
0.59226
2.2412
2.2977
2.2971
2.2597
2.2054
2.174
2.1729
2.1595
2.1592
1.8304
1.7363
1.6864
1.682
1.5895
1.4749
1.4019
1.378
1.3515
1.3326
1.3297
1.3255
1.3201
1.3105
1.3095
1.3114
1.32
1.3271
1.337
1.3647
1.3648
1.3576
1.3572
1.3572
1.3507
1.3454
1.3396
1.3375
1.3404
1.3402
1.3402
1.3384
1.3478
1.3501
1.3502
1.3699
1.3707
1.3708
1.3765
1.3766
1.3691
1.369
1.333
1.329
1.3021
1.295
1.2927
1.2807
1.2806
1.2903
1.3149
1.3319
1.338
1.3448
1.3721
1.3761
1.3766
1.3835
1.4133
1.4278
1.5076
1.5137
1.5497
1.5506
1.5987
1.6046
1.6148
1.6389
1.6375
1.6411
1.639
1.6187
1.6165
1.6124
1.6045
1.5973
1.5852
1.565
1.5253
1.3098
1.2535
1.1576
1.098
1.0364
1.0272
1.0014
0.99006
0.9731
0.9614
0.94033
0.93051
0.91283
0.89025
0.88416
0.86961
0.86305
0.86147
0.84984
0.83224
0.79308
0.79048
0.7534
0.75178
0.74945
0.70661
0.70609
0.70399
0.70259
0.70278
0.703
0.70519
0.70669
0.71151
0.71764
0.7264
0.73789
1.6374
1.6345
1.637
1.6326
1.6046
1.5987
1.5977
1.5961
1.564
1.5626
1.4902
1.3883
1.3875
1.3553
1.3306
1.2528
1.2349
1.2347
1.1775
1.1756
1.146
1.1427
1.1208
1.0657
1.0646
1.0513
1.0512
1.0158
0.9782
0.92372
0.86829
0.86411
0.84121
0.82722
0.82172
0.81094
0.79844
0.79465
0.79454
0.79964
0.80034
0.80177
0.80039
0.79335
0.78586
0.78598
0.7864
0.78715
0.80221
0.80539
0.80734
0.80694
0.81019
0.82645
0.84757
0.84808
0.8481
0.88422
0.90089
0.92317
0.93531
0.93566
0.93622
0.93565
0.93664
0.93705
0.91771
0.91703
0.90048
0.89813
0.89718
0.8894
0.89044
0.89044
0.87181
0.86314
0.86229
0.86181
0.85812
0.8581
0.80437
0.7463
0.73234
0.73024
0.73023
0.7294
0.73029
0.72448
0.73309
0.73152
0.76781
0.8235
0.87431
0.9512
0.99106
1.0088
1.0323
1.0367
1.0366
1.0479
1.0483
1.3412
1.358
1.3583
1.3646
1.3823
1.3825
1.3924
1.3921
1.3858
1.3913
1.3966
1.3956
1.392
1.3097
1.2734
1.239
1.1577
1.1382
1.1157
1.1119
1.094
1.0967
1.1383
1.1759
1.1794
1.2108
1.2398
1.2311
1.2234
1.2234
1.2014
1.2012
1.2151
1.2224
1.2193
1.1684
1.1611
1.1592
1.1312
1.117
1.0429
1.0423
0.99241
0.98752
0.94083
0.94026
0.91667
0.91909
0.91973
0.92703
0.92361
0.92358
0.88202
0.87842
0.8353
0.82395
0.80671
0.76159
0.76023
0.77928
0.79814
0.8169
0.81998
0.80043
0.78752
0.7586
0.75609
0.74811
0.74778
0.77959
0.7854
0.82236
0.83465
0.86761
0.8766
0.87583
0.87352
0.82922
0.82832
0.79902
0.77031
0.75973
0.73246
0.71655
0.70567
0.67246
0.66618
0.64485
0.63788
0.62749
0.61621
0.60869
0.6083
0.58655
0.58244
0.57561
0.55719
0.55473
0.55428
0.54936
0.53421
0.5316
0.53105
0.54022
0.54606
0.54914
0.55067
0.55527
0.56748
0.57894
0.58756
0.59266
0.62417
0.6335
0.63791
0.65091
0.67326
0.67091
0.6802
0.68034
0.67369
0.67641
0.67535
0.67415
0.69502
0.70317
0.69983
0.70728
0.70516
0.73322
0.75071
0.77883
0.80583
0.81234
0.81401
0.82686
0.82655
0.80753
0.78865
0.78858
0.77693
0.77479
0.75436
0.74297
0.71572
0.70888
0.70103
0.69514
0.69507
2.5835
2.5877
2.5877
2.6339
2.5911
2.5556
2.5414
2.476
2.4709
2.4708
2.4598
2.4422
2.4205
2.4039
2.3909
2.338
2.3061
2.2883
2.2882
2.2202
2.1361
2.1247
2.0566
2.0364
2.0134
1.9718
1.9244
1.917
1.9169
1.8008
1.7999
1.7723
1.7721
1.7244
1.7242
1.712
1.7113
1.7088
1.6777
1.678
1.7184
1.7185
1.7121
1.7046
1.7067
1.6985
1.6961
1.6961
1.6929
1.6924
1.6838
1.6785
1.6772
1.6491
1.6425
1.6319
1.6326
1.6167
1.6033
1.6032
1.5703
1.6124
1.6135
1.6341
1.6686
1.6743
1.6847
1.6984
1.6932
1.6886
1.6745
1.6325
1.6324
1.6161
1.6085
1.6081
1.561
1.5379
1.5189
1.517
1.5039
1.4588
1.3805
1.3517
1.3024
1.2116
1.1553
1.135
1.1153
1.1029
1.1049
1.1082
1.1101
1.0912
1.0437
1.002
0.99974
0.99078
0.97939
0.97832
0.96329
0.96268
0.95538
0.93947
0.93329
0.92627
0.87222
0.86123
0.79049
0.73409
0.68365
0.69593
0.73655
0.83107
0.83295
0.83296
0.85694
0.92234
0.94679
0.8694
0.85046
1.9558
1.9179
1.8005
1.707
1.6777
1.6745
1.6903
1.6818
1.6802
1.6843
1.6844
1.6909
1.6843
1.6803
1.6736
1.6495
1.6309
1.631
1.6316
1.6422
1.6453
1.6802
1.6828
1.6835
1.6697
1.6604
1.6601
1.6534
1.6569
1.6521
1.643
1.6155
1.5536
1.5022
1.502
1.4114
1.3553
1.355
1.3121
1.2541
1.216
1.2151
1.0212
0.94741
0.91643
0.90178
0.90466
0.90593
0.95589
0.96724
1.0071
1.0072
1.0072
1.0785
1.1381
1.1449
1.2407
1.2529
1.2673
1.2786
1.2667
1.2648
1.2552
1.2426
1.2227
1.2176
1.1531
1.1294
1.096
1.0959
1.0743
1.0402
1.0257
0.99938
0.99136
0.9904
0.98709
0.97033
0.96521
0.95819
0.95597
0.93829
0.93818
0.93661
0.93583
0.9349
0.92921
0.92967
0.92844
0.92842
0.92341
0.93813
0.93944
0.93957
0.93682
0.97171
0.97451
0.98743
0.98495
0.97465
0.94735
0.91228
0.89001
0.88425
0.87953
0.87944
0.81987
0.77432
0.75674
0.7566
0.69198
0.67692
0.63161
0.58586
0.53106
0.98386
0.93325
0.91419
0.87578
0.87103
0.83584
0.81744
0.75984
0.7596
0.70836
0.68266
0.64739
0.64748
0.65939
0.69518
0.71346
0.74583
0.76232
0.8012
0.80096
0.79785
0.79498
0.78422
0.73761
0.73715
0.72609
0.73035
0.73174
0.73175
0.75808
0.77954
0.78194
0.77903
0.71197
0.70315
0.70312
0.68869
0.68851
0.62764
0.61692
0.57372
0.54953
0.79888
0.77284
0.77103
0.74398
0.73523
0.73082
0.74652
0.77229
0.778
0.78415
0.78468
0.78209
0.77392
0.75498
0.68304
0.65885
0.64937
0.59792
0.57914
0.57775
0.57847
0.5773
0.57873
0.57317
0.57038
0.57438
0.57614
0.57496
0.59193
0.58511
0.58318
0.57321
0.56886
0.56688
0.55873
0.54511
0.54592
0.54211
0.54014
0.54971
0.55098
0.56107
0.55629
0.55616
0.55615
0.57848
0.58254
0.59134
0.61128
0.61158
0.61227
0.61385
0.9065
0.90633
0.89828
0.89431
0.85759
0.84003
0.74737
0.67606
0.66059
0.65142
0.65935
0.65814
0.652
0.65945
0.67589
0.67931
0.68449
0.75534
0.75574
0.83607
0.87855
0.8795
0.8795
0.89689
0.89937
0.95635
0.95681
0.96568
0.97327
0.97346
0.96626
0.95563
0.95133
0.94297
0.92479
0.91421
0.89377
0.88756
0.88451
0.88202
0.86754
0.86195
0.85856
0.83972
0.8402
0.81937
0.81913
0.79491
0.79073
0.79068
0.78781
0.7878
0.78558
0.78009
0.78068
0.77931
0.77587
0.77185
0.76562
0.75775
0.75256
0.72076
0.70871
0.67746
0.6655
0.63047
0.58561
0.57613
0.56924
0.54525
0.78011
0.77833
0.77566
0.76897
0.76781
0.76093
0.74659
0.74421
0.74081
0.71201
0.70549
0.67969
0.643
0.6287
0.5777
0.52688
0.50314
0.46197
0.43876
0.43335
0.42774
0.36366
0.33994
0.3155
0.3154
0.32142
0.33283
0.33292
0.35504
0.38362
0.39617
0.40148
0.40076
0.45435
0.46135
0.46138
0.47163
0.47388
0.48756
0.48868
0.49882
0.48383
0.49075
0.49259
0.50586
0.51496
0.51902
0.52089
0.52054
0.50329
0.5043
0.51075
0.51404
0.51513
0.51381
0.51983
0.52357
0.52062
0.51294
0.55783
0.58515
0.59142
0.58352
0.58184
0.56603
0.57872
0.59652
0.60615
0.61081
0.6165
0.62599
0.62706
0.6271
0.62521
0.62358
0.62013
0.6077
0.6076
0.58351
0.58806
0.57121
0.59693
0.61201
0.6307
0.63755
0.63991
0.64655
0.63539
0.63516
0.63493
0.63493
0.63563
0.63566
0.63858
0.63102
0.60989
0.59402
0.59245
0.58768
0.5811
0.56129
0.54641
0.54415
0.518
0.49853
0.48429
0.48925
0.48124
0.4892
0.49484
4.161
4.161
4.1884
4.191
4.191
4.2578
4.2764
4.3348
4.3432
4.3448
4.3553
4.3905
4.4285
4.4893
4.5084
4.4867
4.4656
4.3922
4.2985
4.1875
4.0604
3.9276
3.9026
3.843
3.8334
3.7537
3.6837
3.6728
3.6382
3.6052
3.6049
3.586
3.586
3.5698
3.5639
3.553
3.5546
3.5679
3.5427
3.541
3.5409
3.5118
3.5116
3.4807
3.4804
3.4703
3.47
3.4231
3.3836
3.3724
3.295
3.2052
3.205
3.1782
3.172
3.1467
3.0862
3.0787
3.0394
3.0391
3.0239
3.0234
3.0163
3.0113
2.9537
2.9359
2.9355
2.9226
2.8795
2.8793
2.8452
2.7904
2.789
2.7219
2.6944
2.6718
2.6461
2.5681
2.5675
2.5131
2.4355
2.3372
2.3193
2.3041
2.1581
2.1558
2.1448
2.1822
2.1878
2.2089
2.2165
2.2203
2.2065
2.144
2.0758
2.0431
2.0275
1.9986
1.9436
1.9349
1.9059
1.8827
1.8369
1.8282
1.7936
1.7925
1.8474
1.8554
1.8673
1.8526
1.8341
1.8259
1.805
1.7815
1.7129
1.7207
1.723
1.7163
1.7135
1.7127
1.7233
1.7232
1.7444
1.813
1.8228
1.8232
1.8273
1.8288
1.8835
1.9058
1.9187
1.9384
1.9494
1.9605
1.966
1.9461
1.9421
1.9334
1.9331
1.9298
1.9297
1.9064
1.8978
1.8817
1.8734
1.8732
1.8406
1.8404
1.8147
1.7993
1.7585
1.7482
1.735
1.7304
1.7165
1.6839
1.6333
1.6249
1.5488
1.4973
1.3919
1.3731
1.3555
1.2283
1.2144
1.186
1.1835
1.1163
1.1017
0.99721
0.99284
0.95961
0.95498
0.94743
0.94731
0.89017
0.86925
0.85696
0.85676
0.79365
0.79305
0.77577
0.75877
0.74556
0.74565
0.72901
0.72416
0.72321
0.70852
0.70846
0.68933
0.68072
0.65774
0.65694
0.6482
0.64999
0.65627
0.6507
0.62269
0.60739
0.59658
0.59619
0.60265
0.67274
0.67478
0.73892
0.75293
0.77361
0.84663
0.84892
0.87702
0.8829
0.88305
0.88514
0.88877
0.89082
0.89042
0.89021
0.88751
0.88564
0.83366
0.8191
0.81443
0.80476
0.80286
0.7975
0.79698
0.78321
0.78529
0.77502
0.76645
0.76676
0.80238
0.81757
0.82058
0.85641
0.85574
0.859
0.85741
0.85667
0.85676
0.85592
0.85493
0.84765
0.84665
0.83669
0.82428
0.81007
0.80818
0.78665
0.78032
0.79068
0.79161
0.80292
0.81799
0.83189
0.8322
0.8404
0.84171
3.3036
3.2192
3.219
3.2177
3.1462
3.1376
3.1375
3.0984
3.0979
3.0493
3.0193
3.0189
2.9825
2.9822
2.9146
2.8831
2.8273
2.8249
2.7508
2.6257
2.6103
2.5956
2.5477
2.5033
2.5028
2.4745
2.4617
2.3726
2.3701
2.293
2.2841
2.2838
2.2701
2.2618
2.2392
2.2344
2.2235
2.2235
2.2184
2.2183
2.1588
2.2092
2.2127
2.2127
2.2253
2.2301
2.2562
2.2591
2.2567
2.2212
2.1915
2.145
2.1359
2.0643
2.064
2.0126
2.012
1.9746
1.9736
1.9485
1.9482
1.9423
1.9402
1.9215
1.9199
1.905
1.8749
1.8253
1.8493
1.8462
1.8408
1.8411
1.8411
1.8461
1.8532
1.8357
1.8274
1.8202
1.8026
1.8014
1.7859
1.7856
1.7836
1.7836
1.7726
1.7684
1.7684
1.7469
1.7401
1.7371
1.7308
1.7217
1.7162
1.7001
1.6895
1.6848
1.645
1.6288
1.6066
1.6055
1.5903
1.5859
1.5698
1.5233
1.5073
1.5026
1.5025
1.4796
1.4618
1.4577
1.4303
1.428
1.4232
1.398
1.3851
1.3812
1.3666
1.3598
1.2296
1.2197
1.1837
1.164
1.1385
1.1079
1.0926
1.0449
1.0421
1.0187
1.0199
1.0414
1.0449
1.1085
1.1229
1.2222
1.2726
1.2961
1.3174
1.3289
1.3247
1.3247
1.2473
1.1943
1.1941
1.1913
1.1575
1.1542
1.0902
1.0564
1.0273
1.0294
1.0292
1.0308
1.0291
1.0262
1.0142
1.027
1.0278
1.0499
1.059
1.0585
1.0585
1.0552
1.0551
1.0928
1.1372
1.1462
1.1313
1.1293
1.131
1.1281
1.1221
1.1081
1.1007
1.0665
1.0513
1.0491
1.0534
1.0686
1.0866
1.1
1.1003
1.1004
1.0987
1.0946
1.0735
1.0342
1.0205
1.0005
0.99426
0.99
0.98215
0.97173
0.96009
0.94374
0.9354
0.93193
0.92632
0.92081
0.91976
0.90879
0.90555
0.90887
0.91117
0.90901
0.91564
0.91937
0.93017
0.93201
0.93165
0.91763
0.89146
0.82074
0.77023
0.73793
0.73533
0.72829
0.72101
0.69375
0.68769
0.68056
0.64532
0.64249
0.63547
0.60723
0.61686
0.61582
0.61581
0.61157
0.6173
0.62798
0.63388
0.62992
0.62907
0.62829
0.64172
0.62806
1.2966
1.2811
1.2627
1.2171
1.1969
1.1135
1.1078
1.1048
1.0976
1.0976
1.092
1.092
1.0782
1.0779
1.0704
1.0704
1.0167
1.0063
0.99987
0.99984
0.99269
0.99261
0.97553
0.96646
0.95344
0.94138
0.92705
0.92659
0.9142
0.90268
0.90254
0.89747
0.89673
0.8806
0.88053
0.83926
0.8386
0.82544
0.82406
0.82278
0.79142
0.74246
0.73822
0.70507
0.66219
0.65383
0.6516
0.66159
0.66093
0.68586
0.7018
0.70694
0.70718
0.71995
0.72
0.74481
0.76802
0.77322
0.78293
0.78312
0.78095
0.7866
0.78694
0.80851
0.81122
0.8248
0.82481
0.82481
0.82711
0.82946
0.82805
0.82673
0.82468
0.83445
0.83271
0.83366
0.83182
0.82446
0.82473
0.82407
0.82747
0.82359
0.82171
0.81017
0.80817
0.82609
0.82088
0.81925
0.8189
0.81103
0.81001
0.807
0.78954
0.77804
0.77383
0.762
0.74339
0.74194
0.73504
0.71925
0.71783
0.69283
0.69263
0.66775
0.65875
0.64661
0.63761
0.67414
0.67487
0.68776
0.68892
0.715
0.71974
0.71329
0.70586
0.68476
0.67183
0.6696
0.6599
0.6581
0.63565
0.63107
0.6312
0.62257
0.62243
0.6161
0.6153
0.61529
0.58977
0.58405
0.57947
0.57483
0.56442
0.55799
0.55749
0.56754
0.57148
0.5771
0.59618
0.59522
0.59289
0.56866
0.56881
0.56568
0.53015
0.52734
2.8835
2.8741
2.857
2.8422
2.842
2.7397
2.7393
2.6501
2.6244
2.6134
2.5539
2.5531
2.5268
2.4787
2.4508
2.4507
2.3872
2.3225
2.3223
2.2859
2.2086
2.2064
2.1611
2.1349
2.2022
2.212
2.215
2.2353
2.2464
2.229
2.2112
2.2068
2.2062
2.1906
2.1848
2.1848
2.1695
2.1639
2.1155
2.0883
2.0824
2.0682
2.0676
2.0647
2.0646
2.0275
1.9655
1.9488
1.943
1.9159
1.9021
1.8929
1.8834
1.8734
1.8734
1.8445
1.8275
1.8272
1.8131
1.774
1.7686
1.7488
1.7191
1.7184
1.6886
1.6722
1.6673
1.6546
1.6216
1.6181
1.6003
1.5823
1.5658
1.5608
1.565
1.5779
1.5831
1.5832
1.5922
1.6359
1.636
1.6498
1.6517
1.6584
1.6387
1.6254
1.6158
1.5993
1.5781
1.5775
1.4946
1.4756
1.4968
1.498
1.5221
1.5207
1.5207
1.5143
1.4972
1.4965
1.5078
1.5412
1.5477
1.5608
1.6175
1.6475
1.5584
1.5405
1.5012
1.4337
1.3966
1.3146
1.2673
1.1479
1.1192
1.056
1.0208
0.95293
0.95008
0.89342
0.87785
0.87747
0.87035
0.84667
0.88746
0.88815
0.89162
0.89267
0.88606
0.88537
0.91481
0.91986
0.91988
0.94734
0.96375
0.97572
0.97666
1.0021
1.0327
1.0352
1.0621
1.146
1.1484
1.1484
1.1316
1.1237
1.0765
1.0576
1.0326
1.0294
1.0201
1.02
0.98182
0.97219
0.95715
0.94984
0.94901
0.90936
0.90876
0.86865
0.86286
0.85409
0.85356
0.84975
0.82736
0.84424
0.84453
0.86909
0.88805
0.9048
0.91056
0.92226
0.92293
0.92327
0.93063
0.93288
0.93183
0.93216
0.93332
0.93415
0.9405
0.93245
0.92362
0.92158
0.90069
0.89728
0.89241
0.88781
0.88522
0.87237
0.86243
0.82163
0.82133
0.81715
0.8171
0.81008
0.80531
0.79296
0.7952
0.79407
0.78729
0.76204
0.74206
0.70959
0.701
0.7001
0.66645