# vtk DataFile Version 3.0
vtk output
ASCII
DATASET POLYDATA
POINTS 31028 float
-2.5092 -128.32 -80.361
-16.806 -121.75 -103.02
-26.975 -122.22 -105.81
-30.891 -123.23 -103.91
-38.507 -119.06 -98.282
-38.985 -117.74 -97.023
-38.664 -111.86 -84.104
-28.858 -120.78 -127.34
-34.007 -118.01 -134.21
-36.773 -113.26 -133.99
-38.214 -110.32 -132.97
-36.669 -106.65 -131.84
-52.806 -111.8 -95.819
-41.512 -106.1 -88.128
-34.796 -104.92 -129.1
-40.1 -130.61 -100.65
-49.412 -132.39 -99.895
-57.298 -131.76 -101.22
-37.608 -129.93 -90.877
-44.607 -127.66 -79.072
-37.138 -131.6 -86.168
-36.415 -132.07 -76.003
-39.369 -115.5 -145.75
-35.487 -112.85 -150.08
-43.893 -137.26 -101.72
-45.721 -143.35 -102.69
-48.267 -151.89 -98.999
-43.712 -105.89 -133.64
-49.182 -99.174 -136.21
-40.568 -130.34 -138.66
-43.319 -139.05 -143.56
-43.413 -139.29 -143.79
-63.453 -134.07 -89.65
-51.431 -100.14 -131.57
-52.669 -98.296 -131.06
-48.336 -147.64 -107.24
-57.257 -153.49 -109.09
-39.26 -147.09 -73.165
-43.79 -143.58 -146.28
-45.368 -146.15 -146.86
-48.536 -131.4 -140.88
-59.347 -133.68 -146.25
-53.322 -166.95 -115.55
-57.147 -131.08 -140.84
-66.797 -136.19 -139.7
-64.75 -128.8 -139.49
-68.301 -127.62 -140.52
-68.094 -127 -138.4
-42.316 -114.66 -152.33
-46.661 -116.77 -157.91
-49.551 -120.91 -169.73
-42.716 -114.19 -153.13
-52.863 -107.75 -164.26
-59.334 -103.54 -166.26
-44.735 -107.58 -162.21
-45.858 -95.765 -164.16
-44.362 -146.71 -148.9
-46.492 -161.01 -160.79
-33.796 -178.81 -98.654
-45.772 -167.7 -159.17
-44.679 -103.13 -170.8
-41.402 -99.748 -180.93
-39.517 -101.37 -184.34
-39.146 -97.886 -185.02
-67.504 -120.92 -178.79
-70.09 -120.43 -180.62
-71.234 -122.78 -183.39
-71.832 -100.65 -184.71
-72.754 -101.24 -185.16
-50.679 -92.766 -183.62
-51.602 -90.028 -187.54
-74.256 -98.932 -187.25
-58.829 -79.083 -191.97
-61.603 -76.885 -194.53
-61.009 -71.239 -194.28
-57.237 -99.53 -131.9
-37.348 -105.72 -133.14
-33.857 -105.84 -132.14
-32.039 -97.375 -126.37
-29.57 -105.56 -123.91
-30.718 -114.47 -152.46
-32.549 -109.35 -151.36
-47.364 -96.086 -138.92
-46.924 -87.959 -137
-51.999 -83.938 -129.84
-52.411 -88.442 -122.86
-48.614 -126.65 -173.41
-44.406 -123.12 -173.9
-63.165 -97.903 -163.3
-65.33 -103.09 -164.34
-41.404 -89.575 -163.85
-47.218 -87.395 -160.23
-36.025 -109.43 -188.84
-31.493 -107.05 -192.86
-34.732 -97.184 -195.13
-34.526 -92.877 -185.41
-73.66 -117.98 -179.5
-75.395 -120.84 -178.65
-78.074 -131.41 -191.56
-75.108 -126.85 -195.49
-80.391 -100.83 -178.36
-72.825 -102.99 -183.88
-52.153 -90.806 -193.09
-49.276 -85.881 -187.46
-83.389 -94.794 -185.2
-82.822 -100.16 -198.79
-69.901 -77.708 -199.88
-64.007 -74.965 -203.19
-66.294 -67.171 -201.04
-58.183 -65.94 -190.07
-65.988 -91.537 -135.61
-65.186 -90.397 -127.88
-41.283 -104.57 -133.01
-38.787 -106.79 -134.78
-30.428 -104.51 -134.85
-30.63 -108.28 -133.24
-28.7 -94.531 -125.1
-32.082 -92.531 -122.64
-23.557 -105.34 -122.45
-28.181 -107.6 -120.31
-25.728 -114.06 -151.27
-28.599 -115.83 -156.75
-30.214 -106.1 -150.23
-32.963 -107.84 -154.2
-48.555 -95.62 -141.81
-46.024 -96.728 -140.64
-45.621 -83.536 -139.91
-41.901 -83.361 -137.24
-53.32 -74.431 -126.21
-51.769 -74.226 -132.53
-48.48 -82.091 -116.94
-53.716 -85.2 -117.9
-46.487 -132.23 -180.17
-51.194 -128.8 -174.12
-39.874 -126.52 -175.3
-42.828 -121.41 -175.02
-66.814 -93.74 -163.4
-62.655 -95.169 -162.18
-66.734 -104.49 -160.67
-67.014 -105.4 -164.36
-38.873 -87.255 -165.93
-37.421 -87.073 -161.41
-50.898 -82.402 -159.45
-45.377 -79.416 -158.92
-39.152 -113.86 -193.22
-34.224 -112.89 -186.95
-29.319 -112.24 -200.88
-24.345 -112.34 -194.91
-31.393 -92.327 -200.73
-35.269 -96.486 -201.96
-30.959 -93.034 -183
-33.529 -87.59 -185.15
-74.452 -115.89 -181.09
-73.562 -116.36 -177.33
-77.905 -120.37 -174.65
-78.805 -122.56 -178.56
-77.868 -141 -199.15
-87.935 -134.32 -198.33
-71.354 -131.35 -200.9
-80.072 -126.68 -203.71
-85.988 -103.42 -174.6
-85.575 -97.49 -173.11
-70.507 -103.61 -182.02
-71.492 -106 -184.99
-54.669 -92.734 -195.58
-51.034 -92.548 -196.71
-46.875 -84.101 -186.19
-50.108 -83.509 -187.78
-88.07 -89.562 -185.89
-87.768 -90.772 -180.45
-88.572 -96.472 -206.01
-89.681 -104.53 -204.32
-76.555 -77.3 -208.16
-75.556 -76.511 -198.79
-61.947 -76.573 -209.54
-57.848 -71.617 -211.6
-66.861 -63.654 -210.01
-71.696 -63.019 -201.04
-56.2 -63.764 -184.25
-59.797 -60.793 -187.42
-74.82 -89.291 -137.16
-69.587 -85.037 -139.73
-68.455 -82.444 -124.38
-72.022 -87.097 -126.21
-42.706 -103.6 -130.17
-44.807 -106.14 -131.6
-39.796 -109.22 -134.29
-39.259 -107.78 -137.28
-26.149 -103.6 -136
-29.947 -102.26 -135.9
-29.951 -110.65 -134.53
-27.617 -110.3 -132.84
-27.597 -91.812 -127.34
-26.129 -94.453 -125.6
-29.991 -88.94 -119.19
-33.791 -92.597 -120
-19.216 -107.09 -123.91
-19.545 -105.11 -117.6
-30.021 -109.49 -118.84
-27.464 -106.49 -115.8
-23.427 -114.27 -148.44
-21.474 -112.62 -152.38
-25.02 -117.17 -159.96
-28.569 -115.25 -159.51
-29.436 -102.79 -150.18
-26.267 -104.04 -150.56
-35.727 -106.95 -155.05
-34.236 -108.51 -156.57
-51.154 -94.802 -142.11
-50.283 -98.094 -143.35
-45.606 -98.907 -141.65
-44.016 -96.352 -140.56
-46.796 -81.992 -140.16
-45.425 -83.654 -141.59
-38.313 -79.781 -139.49
-39.081 -81.877 -135.62
-51.092 -68.373 -122.72
-57.417 -68.151 -123.54
-55.458 -66.711 -135.04
-49.578 -68.433 -135.52
-43.783 -79.359 -114.19
-48.401 -76.902 -111.68
-53.694 -86.951 -114.3
-55.612 -85.201 -117.15
-44.903 -133.84 -185.75
-45.932 -137.84 -183.94
-53.879 -127.86 -175.8
-53.262 -129.46 -171.97
-37.472 -128.6 -173.2
-35.544 -127.34 -177.22
-41.765 -118.62 -173.26
-44.104 -118.32 -176.18
-68.374 -91.075 -166.02
-69.125 -89.834 -161.83
-60.353 -93.243 -163.53
-61 -94.856 -159.92
-65.137 -105.19 -157.69
-68.911 -106.9 -158.85
-65.634 -108.51 -164.47
-67.818 -105.89 -165.84
-38.804 -85.038 -167.56
-37.173 -88.387 -167.78
-33.309 -84.793 -161.76
-35.586 -88.059 -159.24
-53.454 -81.187 -157.87
-53.535 -79.391 -161.35
-46.015 -73.136 -159.25
-41.456 -74.67 -158.33
-41.593 -114.7 -197.47
-41.483 -116.45 -193.86
-34.572 -113.31 -184.5
-31.774 -113.32 -186
-28.325 -118.73 -204.36
-26.34 -112.89 -207.31
-19.743 -119.35 -197.69
-20.479 -113.19 -193.26
-30.593 -87.313 -202.41
-29.004 -91.313 -206.4
-37.753 -96.398 -204.59
-33.824 -97.896 -206.26
-28.014 -94.928 -182.83
-30.488 -94.184 -180.28
-32.798 -82.913 -187.3
-31.479 -83.643 -183.07
-75.792 -116.27 -183.78
-72.613 -114.95 -183.5
-72.049 -115.03 -177.09
-71.731 -116.83 -175.33
-78.179 -119.45 -171.51
-78.76 -121.94 -172.62
-79.031 -126.18 -178.84
-83.058 -122.31 -179.94
-72.932 -146.52 -201.32
-81.924 -147.61 -207.56
-93.681 -139.61 -208.08
-94.989 -132.73 -201.58
-66.986 -133.32 -200.31
-68.021 -129.5 -203.66
-79.777 -126.33 -207.99
-83.52 -125.19 -206.83
-89.099 -106.52 -173.92
-92.281 -104.23 -174.09
-86.755 -94.682 -168.7
-91.394 -97.036 -168.44
-69.493 -101.78 -180.62
-66.536 -103.73 -181.74
-68.696 -106.6 -187.76
-72.249 -107.12 -187.94
-57.725 -92.502 -195.91
-55.975 -96.703 -197.87
-49.164 -93.203 -196.96
-51.398 -93.419 -200.55
-45.746 -84.824 -183.63
-44.646 -80.355 -186.63
-52.95 -82.314 -185.88
-50.892 -81.785 -189.9
-93.748 -88.59 -186.66
-89.516 -85.486 -187.35
-91.78 -86.935 -178.54
-87.475 -85.543 -176.1
-94.64 -93.092 -208.26
-90.866 -95.431 -212.97
-94.387 -106.91 -211.96
-94.734 -107.15 -203.46
-80.494 -74.988 -215.28
-82.269 -76.839 -210.55
-78.345 -73.752 -196.08
-76.86 -77.838 -196.87
-63.788 -79.049 -212.18
-60.272 -79.139 -210.02
-52.845 -71.787 -216.67
-53.524 -67.524 -214.3
-65.006 -59.653 -212.71
-70.621 -62.326 -216.61
-73.411 -59.594 -198.82
-77.042 -61.921 -200.39
-57.009 -60.348 -178.23
-51.712 -63.156 -183.43
-63.822 -57.652 -181.41
-60.827 -57.528 -188.44
-80.2 -90.563 -137.26
-80.019 -86.665 -140.04
-69.907 -80.274 -142.73
-74.758 -77.945 -141.79
-71.62 -78.108 -120.22
-71.135 -75.636 -124.58
-74.541 -86.866 -123.61
-76.314 -86.308 -126.51
-43.329 -101.48 -129.54
-42.756 -103.96 -126.87
-48.552 -106.04 -131.86
-47.152 -106.92 -128.53
-40.399 -110.66 -132.59
-38.718 -111.22 -133.99
-40.496 -107.9 -139.11
-38.746 -109.66 -139.29
-23.178 -102.87 -135.51
-23.846 -102.24 -137.43
-30.205 -100.85 -135.03
-30.708 -101.44 -137.06
-30.185 -111.2 -136.41
-30.511 -112.36 -133.78
-25.109 -110.76 -133.22
-25.709 -113.16 -132.62
-27.961 -89.823 -128.04
-26.03 -90.735 -130.06
-25.266 -95.704 -126.33
-24.566 -94.304 -124.58
-27.733 -88.445 -115.73
-29.859 -85.744 -117.41
-34.695 -94.1 -117.15
-36.107 -92.234 -120.09
-16.287 -106.44 -125.94
-17.203 -109.78 -124.17
-16.064 -105.83 -115.84
-18.333 -104.83 -113.33
-30.892 -111.38 -119.54
-33.028 -108.93 -117.72
-27.118 -107.65 -112.92
-27.926 -104.14 -113.58
-22.595 -115.52 -146.81
-22.828 -113.32 -146.69
-18.515 -112.99 -152.98
-19.323 -110.33 -152.81
-21.118 -115.8 -162.7
-24.286 -118.58 -162.59
-29.251 -114.27 -160.54
-30.123 -116.77 -161.27
-29.501 -101.46 -148.43
-30.102 -101.16 -150.83
-23.739 -101.25 -149.78
-24.019 -102.65 -153.42
-37.957 -106.35 -154.29
-38.95 -107.69 -156.12
-34.81 -110.15 -157.04
-34.449 -107.06 -159.26
-51.835 -93.085 -141.48
-54.582 -95.509 -140.68
-50.472 -98.309 -146.22
-52.213 -100.74 -142.98
-44.83 -99.952 -141.74
-45.565 -99.847 -143.31
-43.492 -95.464 -139.57
-41.671 -95.793 -141.82
-48.746 -81.151 -137.93
-49.641 -81.295 -141.16
-46.541 -84.441 -142.49
-44.196 -83.973 -143.28
-34.992 -79.864 -140.86
-36.515 -75.785 -139.47
-37.763 -83.005 -134.73
-37.839 -79.455 -132.79
-49.632 -63.251 -122.04
-48.239 -66.11 -120.23
-58.867 -62.376 -120.4
-60.895 -65.468 -120.99
-59.101 -63.166 -137.97
-55.623 -60.386 -136.51
-47.07 -66.183 -138.04
-46.898 -64.337 -134.73
-41.183 -77.774 -114.88
-40.36 -78.92 -109.8
-50.664 -72.719 -108.94
-45.925 -73.563 -108.01
-52.066 -89.021 -113.65
-54.687 -90.512 -113.97
-57.658 -87.426 -118.04
-56.961 -84.173 -117.98
-41.509 -135 -189.04
-45.661 -133.8 -189.81
-43.042 -141.75 -186.77
-47.899 -140.83 -186.91
-56.271 -129.4 -177.38
-54.31 -125.9 -177.38
-55.2 -128.26 -169.77
-52.834 -130.37 -170.68
-36.799 -131.07 -173.27
-37.001 -128.55 -170.64
-33.071 -129.53 -179.03
[...]
POINT_DATA 31028
SCALARS radius double 
LOOKUP_TABLE default 
6.7174
5.0733
3.577
2.4907
1.6086
1.2576
0.7358
3.6833
2.9837
1.1202
1.0694
0.83753
0.78299
1.0272
0.53418
1.9189
0.98078
0.44725
1.2645
0.70738
1.1785
0.67331
2.2744
0.81957
1.5906
1.2155
0.45725
0.94753
0.5951
2.3353
1.6477
1.6772
0.70343
0.88148
0.544
0.88688
0.54852
0.76206
1.1
0.78212
1.017
0.58578
0.52462
0.85673
0.58328
0.87823
0.43436
0.42828
2.1482
1.556
0.80427
2.1838
1.2354
0.86941
1.6566
0.90506
1.2137
0.71388
0.53634
0.78436
1.1307
1.1023
0.69491
0.68598
0.84685
0.46892
0.64603
0.85721
0.61376
0.92124
0.55209
0.77695
0.83957
0.62715
0.63818
0.461
0.72828
0.55069
0.40392
0.46451
0.71267
0.53888
0.51748
0.44998
0.47304
0.35769
0.69936
0.69936
0.6574
0.75601
0.59509
0.78701
0.45691
0.60427
0.5965
0.5187
0.35457
0.40776
0.56177
0.42478
0.40355
0.5337
0.48008
0.48008
0.58749
0.67561
0.47421
0.54535
0.48255
0.55494
0.40087
0.40087
0.63329
0.47886
0.47886
0.47886
0.30542
0.35123
0.40392
0.26558
0.61971
0.46859
0.46859
0.40747
0.44998
0.29587
0.39129
0.39129
0.41134
0.35769
0.31103
0.23518
0.60814
0.52882
0.60814
0.39986
0.57165
0.49709
0.6574
0.57165
0.29586
0.51747
0.51747
0.68435
0.39732
0.34549
0.45691
0.52545
0.5187
0.39221
0.34105
0.45104
0.30832
0.23314
0.26811
0.35457
0.36937
0.48849
0.36937
0.36937
0.35092
0.35092
0.23073
0.46409
0.36301
0.41746
0.41746
0.36301
0.51086
0.51086
0.44422
0.58749
0.41236
0.3118
0.41236
0.47421
0.41961
0.2759
0.48255
0.36488
0.30311
0.34858
0.34858
0.2292
0.4164
0.55069
0.27379
0.4164
0.4164
0.36209
0.27379
0.4164
0.20082
0.26558
0.30542
0.26558
0.20082
0.35123
0.23094
0.20082
0.53888
0.26792
0.40747
0.30811
0.26792
0.40747
0.30811
0.35432
0.39129
0.25728
0.16916
0.25728
0.34025
0.19454
0.29587
0.34025
0.31103
0.35769
0.31103
0.27046
0.23518
0.27046
0.15464
0.20451
0.45984
0.52882
0.45984
0.39986
0.39986
0.52882
0.30235
0.34771
0.49709
0.43225
0.37587
0.43225
0.57165
0.49709
0.49709
0.37587
0.25727
0.25727
0.44997
0.39128
0.39128
0.44997
0.51747
0.59509
0.34549
0.34549
0.30043
0.26124
0.39732
0.39732
0.45691
0.39732
0.34105
0.45104
0.25789
0.34105
0.29657
0.195
0.25789
0.39221
0.26811
0.20273
0.15329
0.20273
0.23314
0.20273
0.26811
0.30832
0.32119
0.32119
0.42478
0.32119
0.21119
0.32119
0.32119
0.32119
0.20064
0.30515
0.17447
0.30515
0.20064
0.17447
0.17447
0.40355
0.20755
0.31566
0.27449
0.36301
0.36301
0.27449
0.31566
0.23868
0.44422
0.3359
0.3359
0.44422
0.38628
0.38628
0.51086
0.38628
0.35857
0.3118
0.23577
0.27113
0.35857
0.23577
0.41236
0.27113
0.23992
0.36488
0.23992
0.23992
0.41961
0.2759
0.31729
0.2759
0.26358
0.26358
0.26358
0.30311
0.26358
0.30311
0.1993
0.1993
0.36209
0.36209
0.31486
0.47886
0.23808
0.23808
0.36209
0.31486
0.36209
0.31486
0.27379
0.31486
0.23808
0.23808
0.27379
0.36209
0.13204
0.17463
0.23094
0.17463
0.23094
0.26558
0.23094
0.15185
0.17463
0.17463
0.23094
0.30542
0.15185
0.20082
0.17463
0.17463
0.20258
0.46859
0.23297
0.23297
0.35432
0.26792
0.17616
0.26792
0.23297
0.15318
0.26792
0.35432
0.23297
0.26792
0.30811
0.30811
0.34025
0.25728
0.22372
0.22372
0.1471
0.1471
0.16916
0.22372
0.29587
0.22372
0.16916
0.16916
0.25728
0.22372
0.22372
0.29587
0.20451
0.27046
0.31103
0.17783
0.27046
0.27046
0.15464
0.23518
0.17783
0.20451
0.23518
0.23518
0.13447
0.13447
0.15464
0.17783
0.39986
0.34771
0.39986
0.45984
0.39986
0.30235
0.34771
0.22862
0.30235
0.34771
0.45984
0.34771
0.22862
0.26292
0.30235
0.30235
0.43225
0.37587
0.32684
0.37587
0.32684
0.32684
0.28421
0.37587
0.32684
0.49709
0.37587
0.43225
0.43225
0.37587
0.32684
0.32684
0.22372
0.22372
0.22372
0.22372
0.39128
0.25727
0.22372
0.34024
0.25727
0.34024
0.39128
0.29586
0.44997
0.34024
0.34024
0.51747
0.26124
0.30043
0.30043
0.22717
0.22717
0.26124
0.22717
0.22717
0.30043
0.34549
0.34549
0.34549
0.30043
0.39732
0.30043
0.34549
0.22425
0.29657
0.22425
0.39221
0.22425
0.195
0.195
0.29657
0.25789
0.195
0.16956
0.16956
0.195
0.22425
0.34105
0.22425
0.23314
0.17628
0.17628
0.15329
0.1333
0.11591
0.17628
0.15329
0.15329
0.20273
0.17628
0.1333
0.20273
0.23314
0.23314
0.26811
0.24287
0.2793
0.24287
0.2793
0.36937
0.36937
0.2793
0.24287
0.18364
0.18364
0.2793
0.2793
0.21119
0.2793
0.24287
0.2793
0.17447
0.17447
0.23073
0.26534
0.15171
0.15171
0.23073
0.26534
0.17447
0.17447
0.11472
0.15171
0.15171
0.15171
0.35092
0.13192
0.18048
0.15694
0.27449
0.15694
0.23868
0.15694
0.20755
0.31566
0.31566
0.15694
0.18048
0.23868
0.18048
0.27449
0.18048
0.20755
0.25399
0.38628
0.25399
0.29208
0.29208
0.19205
0.38628
0.22086
0.3359
0.29208
0.29208
0.3359
0.44422
0.25399
0.3359
0.25399
0.3118
0.27113
0.27113
0.27113
0.20502
0.20502
0.23577
0.17827
0.27113
0.3118
0.15502
0.20502
0.35857
0.3118
0.23577
0.23577
0.20862
0.15775
0.31729
0.18141
0.13717
0.20862
0.20862
0.20862
0.36488
0.15775
0.23992
0.20862
0.2759
0.15775
0.15775
0.23992
0.1993
0.2292
0.1993
0.2292
0.2292
0.17331
0.26358
0.26358
0.1993
0.2292
0.26358
0.17331
0.17331
0.13104
0.17331
0.17331
0.23808
0.31486
0.27379
0.31486
0.23808
0.27379
0.4164
0.4164
0.20702
0.18002
0.18002
0.20702
0.18002
0.31486
0.27379
0.20702
0.31486
0.20702
0.27379
0.23808
0.23808
0.20702
0.23808
0.27379
0.20702
0.20702
0.18002
0.20702
0.23808
0.18002
0.27379
0.31486
0.11482
0.11482
0.11482
0.15185
0.11482
0.20082
0.11482
0.15185
0.15185
0.20082
0.11482
0.23094
0.13204
0.20082
0.13204
0.11482
0.15185
0.15185
0.15185
0.15185
0.17463
0.20082
0.26558
0.20082
0.11482
0.13204
0.17463
0.15185
0.13204
0.15185
0.13204
0.15185
0.17616
0.1332
0.20258
0.40747
0.20258
0.20258
0.20258
0.20258
0.26792
0.30811
0.23297
0.23297
0.15318
0.15318
0.15318
0.23297
0.20258
0.20258
0.1332
0.1332
0.20258
0.23297
0.30811
0.20258
0.20258
0.17616
0.23297
0.23297
0.26792
0.26792
0.26792
0.20258
0.1471
0.29587
0.22372
0.19454
0.19454
0.1471
0.1471
0.19454
0.12791
0.11123
0.12791
0.12791
0.1471
0.12791
0.19454
0.1471
0.25728
0.19454
0.19454
0.19454
0.11123
0.1471
0.1471
0.1471
0.16916
0.22372
0.19454
0.19454
0.11123
0.19454
0.25728
0.19454
0.17783
0.17783
0.23518
0.13447
0.27046
0.20451
0.13447
0.15464
0.23518
0.15464
0.23518
0.17783
0.13447
0.13447
0.20451
0.13447
0.13447
0.15464
0.15464
0.17783
0.15464
0.20451
0.20451
0.15464
0.11693
0.10168
0.11693
0.11693
0.11693
0.13447
0.15464
0.15464
0.34771
0.17287
0.1988
0.30235
0.30235
0.34771
0.39986
0.26292
0.34771
0.26292
0.1988
0.26292
0.1988
0.30235
0.17287
0.1988
0.26292
0.1988
0.1988
0.30235
0.39986
0.30235
0.30235
0.22862
0.1988
0.17287
0.17287
0.22862
0.1988
0.26292
0.22862
0.26292
0.37587
0.32684
0.32684
0.24714
0.28421
0.28421
0.32684
0.32684
0.24714
0.28421
0.28421
0.28421
0.24714
0.24714
0.28421
0.32684
0.24714
0.28421
0.37587
0.43225
0.32684
0.24714
0.32684
0.37587
0.28421
0.37587
0.32684
0.24714
0.28421
0.2149
0.28421
0.28421
0.19454
0.12791
0.16916
0.19454
0.19454
0.19454
0.1471
0.19454
0.34024
0.22372
0.19454
0.22372
0.16916
0.19454
0.29586
0.22372
0.22372
0.22372
0.22372
0.29586
0.34024
0.25727
0.22372
0.25727
0.39128
0.25727
0.22372
0.29586
0.29586
0.25727
0.19454
0.44997
0.22717
0.19754
0.26124
0.22717
0.19754
0.26124
0.19754
0.17177
0.11294
0.19754
0.12988
0.22717
0.17177
0.19754
0.19754
0.17177
0.22717
0.26124
0.30043
0.26124
0.26124
0.30043
0.22717
0.30043
0.22717
0.26124
0.34549
0.30043
0.26124
0.19754
0.26124
0.30043
0.195
0.14745
0.25789
0.16956
0.14745
0.195
0.195
0.34105
0.195
0.14745
0.14745
0.16956
0.16956
0.14745
0.14745
0.25789
0.22425
0.22425
0.12821
0.16956
0.11149
0.14745
0.12821
0.14745
0.12821
0.16956
0.195
0.14745
0.195
0.29657
0.14745
0.195
0.17628
0.20273
0.15329
0.15329
0.15329
0.1333
0.1333
0.11591
0.10079
0.11591
0.10079
0.10079
0.15329
0.11591
0.1333
0.1333
0.1333
0.1333
0.1333
0.17628
0.15329
0.15329
0.11591
0.11591
0.17628
0.17628
0.15329
0.20273
0.20273
0.20273
0.17628
0.23314
0.21119
0.18364
0.24287
0.24287
0.21119
0.18364
0.21119
0.24287
0.32119
0.32119
0.21119
0.32119
0.24287
0.15969
0.21119
0.15969
0.15969
0.15969
0.13886
0.15969
0.15969
0.24287
0.15969
0.24287
0.15969
0.18364
0.24287
0.18364
0.13886
0.21119
0.18364
0.24287
0.15171
0.13192
0.086741
0.15171
0.17447
0.20064
0.13192
0.23073
0.13192
0.11472
0.11472
0.13192
0.20064
0.15171
0.17447
0.23073
0.15171
0.11472
0.15171
0.15171
0.099752
0.099752
0.13192
0.13192
0.099752
0.13192
0.086741
0.13192
0.30515
0.15171
0.11472
0.11472
0.10319
0.15694
0.13647
0.11867
0.23868
0.18048
0.11867
0.13647
0.13647
0.20755
0.13647
0.11867
0.18048
0.13647
0.13647
0.27449
0.27449
0.20755
0.13647
0.11867
0.15694
0.13647
0.11867
0.20755
0.15694
0.13647
0.15694
0.23868
0.10319
0.15694
0.15694
0.18048
0.167
0.22086
0.25399
0.3359
0.22086
0.14522
0.25399
0.22086
0.25399
0.19205
0.14522
0.167
0.29208
0.3359
0.19205
0.167
0.19205
0.29208
0.25399
0.19205
0.22086
0.25399
0.29208
0.29208
0.25399
0.38628
0.22086
0.19205
0.22086
0.29208
0.22086
0.22086
0.17827
0.27113
0.15502
0.23577
0.15502
0.23577
0.20502
0.23577
0.15502
0.17827
0.15502
0.17827
0.20502
0.1348
0.15502
0.15502
0.17827
0.23577
0.17827
0.27113
0.11722
0.1348
0.17827
0.17827
0.23577
0.3118
0.27113
0.20502
0.20502
0.20502
0.17827
0.20502
0.13717
0.18141
0.13717
0.13717
0.20862
0.2759
0.11928
0.15775
0.11928
0.10372
0.18141
0.18141
0.11928
0.18141
0.13717
0.18141
0.15775
0.31729
0.13717
0.13717
0.15775
0.20862
0.18141
0.11928
0.23992
0.20862
0.13717
0.13717
0.13717
0.11928
0.13717
0.20862
0.13104
0.17331
0.1993
0.1993
0.1507
0.17331
0.13104
0.1993
0.13104
0.1993
0.13104
0.1507
0.1507
0.2292
0.2292
0.17331
0.1507
0.17331
0.17331
0.1993
0.2292
0.1507
0.11395
0.1507
0.1507
0.11395
0.11395
0.11395
0.1507
0.11395
0.1507
0.1507
0.20702
0.20702
0.20702
0.27379
0.23808
0.23808
0.27379
0.18002
0.18002
0.20702
0.23808
0.23808
0.36209
0.27379
0.27379
0.36209
0.18002
0.18002
0.18002
0.18002
0.18002
0.27379
0.23808
0.20702
0.18002
0.18002
0.27379
0.27379
0.18002
0.18002
0.20702
0.23808
0.18002
0.20702
0.18002
0.20702
0.18002
0.18002
0.18002
0.20702
0.18002
0.23808
0.18002
0.18002
0.18002
0.18002
0.18002
0.18002
0.20702
0.18002
0.23808
0.27379
0.20702
0.099842
0.099842
0.099842
0.099842
0.099842
0.099842
0.11482
0.13204
0.099842
0.08682
0.099842
0.17463
0.099842
0.08682
0.099842
0.13204
0.13204
0.099842
0.15185
0.17463
0.099842
0.099842
0.20082
0.11482
0.11482
0.11482
0.17463
0.099842
0.099842
0.11482
0.099842
0.099842
0.099842
0.13204
0.13204
0.11482
0.11482
0.13204
0.13204
0.13204
0.099842
0.15185
0.17463
0.13204
0.11482
0.23094
0.11482
0.17463
0.099842
0.099842
0.11482
0.11482
0.11482
0.15185
0.13204
0.08682
0.11482
0.099842
0.13204
0.099842
0.099842
0.11482
0.13204
0.11482
0.15318
0.17616
0.17616
0.35432
0.15318
0.17616
0.1332
0.17616
0.15318
0.17616
0.15318
0.1332
0.17616
0.23297
0.20258
0.17616
0.26792
0.20258
0.1332
0.20258
0.17616
0.1332
0.1332
0.1332
0.1332
0.1332
0.1332
0.20258
0.20258
0.17616
0.15318
0.17616
0.15318
0.17616
0.17616
0.17616
0.20258
0.17616
0.26792
0.1332
0.17616
0.17616
0.1332
0.1332
0.15318
0.20258
0.15318
0.20258
0.20258
0.1332
0.23297
0.15318
0.23297
0.23297
0.15318
0.17616
0.17616
0.11123
0.12791
0.25728
0.16916
0.19454
0.16916
0.16916
0.16916
0.12791
0.12791
0.12791
0.12791
0.12791
0.16916
0.12791
0.11123
0.11123
0.11123
0.11123
0.11123
0.11123
0.12791
0.11123
0.11123
0.1471
0.16916
0.12791
0.12791
0.22372
0.1471
0.1471
0.16916
0.16916
0.12791
0.16916
0.16916
0.12791
0.12791
0.11123
0.12791
0.11123
0.12791
0.11123
0.1471
0.19454
0.16916
0.1471
0.16916
0.16916
0.1471
0.16916
0.1471
0.19454
0.22372
0.16916
0.1471
0.15464
0.088415
0.15464
0.15464
0.15464
0.20451
0.11693
0.11693
0.13447
0.23518
0.17783
0.15464
0.11693
0.10168
0.13447
0.10168
0.20451
0.20451
0.13447
0.13447
0.17783
0.20451
0.13447
0.15464
0.11693
0.11693
0.11693
0.10168
0.17783
0.13447
0.10168
0.11693
0.10168
0.11693
0.11693
0.13447
0.13447
0.13447
0.15464
0.10168
0.13447
0.11693
0.17783
0.15464
0.13447
0.17783
0.13447
0.11693
0.10168
0.10168
0.088415
0.088415
0.10168
0.10168
0.10168
0.10168
0.10168
0.11693
0.10168
0.13447
0.13447
0.11693
0.13447
0.30235
0.22862
0.15032
0.13072
0.17287
0.17287
0.26292
0.1988
0.26292
0.13072
0.30235
0.22862
0.1988
0.34771
0.22862
0.22862
0.1988
0.30235
0.22862
0.17287
0.17287
0.17287
0.22862
0.17287
0.17287
0.17287
0.26292
0.15032
0.13072
0.15032
0.17287
0.17287
0.22862
0.17287
0.17287
0.17287
0.17287
0.26292
0.15032
0.34771
0.1988
0.17287
0.26292
0.17287
0.26292
0.13072
0.1988
0.17287
0.15032
0.15032
0.13072
0.15032
0.15032
0.15032
0.1988
0.13072
0.17287
0.22862
0.17287
0.1988
0.15032
0.15032
0.22862
0.18687
0.32684
0.2149
0.28421
0.24714
0.28421
0.2149
0.18687
0.24714
0.24714
0.24714
0.24714
0.28421
0.28421
0.28421
0.2149
0.2149
0.2149
0.24714
0.2149
0.24714
0.24714
0.24714
0.18687
0.18687
0.2149
0.18687
0.2149
0.18687
0.24714
0.28421
0.2149
0.18687
0.2149
0.18687
0.24714
0.24714
0.32684
0.37587
0.24714
0.18687
0.28421
0.18687
0.2149
0.28421
0.24714
0.28421
0.32684
0.24714
0.24714
0.32684
0.32684
0.28421
0.2149
0.2149
0.2149
0.24714
0.18687
0.18687
0.18687
0.24714
0.2149
0.24714
0.16916
0.16916
0.1471
0.1471
0.1471
0.16916
0.1471
0.16916
0.1471
0.16916
0.12791
0.12791
0.16916
0.12791
0.16916
0.29586
0.1471
0.19454
0.16916
0.16916
0.16916
0.19454
0.1471
0.1471
0.1471
0.16916
0.25727
0.12791
0.1471
0.19454
0.19454
0.19454
0.19454
0.12791
0.19454
0.25727
0.12791
0.29586
0.19454
0.22372
0.1471
0.16916
0.19454
0.19454
0.22372
0.34024
0.25727
0.22372
0.19454
0.1471
0.19454
0.16916
0.25727
0.25727
0.25727
0.19454
0.22372
0.12791
0.16916
0.16916
0.39128
0.19754
0.17177
0.12988
0.17177
0.22717
0.19754
0.17177
0.19754
0.14937
0.17177
0.22717
0.14937
0.17177
0.12988
0.14937
0.12988
0.17177
0.14937
0.11294
0.11294
0.14937
0.19754
0.14937
0.12988
0.17177
0.17177
0.17177
0.17177
0.14937
0.14937
0.19754
0.14937
0.22717
0.19754
0.22717
0.26124
0.19754
0.22717
0.19754
0.22717
0.26124
0.22717
0.19754
0.19754
0.26124
0.22717
0.17177
0.19754
0.22717
0.22717
0.26124
0.30043
0.19754
0.26124
0.17177
0.22717
0.17177
0.17177
0.14937
0.22717
0.26124
0.19754
0.12821
0.16956
0.12821
0.12821
0.22425
0.16956
0.14745
0.12821
0.12821
0.12821
0.12821
0.16956
0.16956
0.14745
0.29657
0.195
0.16956
0.12821
0.12821
0.12821
0.12821
0.12821
0.14745
0.14745
0.12821
0.12821
0.12821
0.12821
0.11149
0.22425
0.096949
0.14745
0.195
0.12821
0.195
0.11149
0.11149
0.12821
0.14745
0.096949
0.096949
0.12821
0.096949
0.11149
0.11149
0.11149
0.12821
0.096949
0.11149
0.14745
0.11149
0.16956
0.16956
0.11149
0.12821
0.11149
0.16956
0.25789
0.12821
0.12821
0.096949
0.12821
0.16956
0.15329
0.11591
0.17628
0.11591
0.10079
0.1333
0.1333
0.1333
0.11591
0.1333
0.11591
0.11591
0.10079
0.11591
0.10079
0.10079
0.10079
0.10079
0.1333
0.10079
0.10079
0.10079
0.10079
0.11591
0.11591
0.11591
0.11591
0.10079
0.11591
0.11591
0.11591
0.10079
0.15329
0.11591
0.1333
0.11591
0.1333
0.10079
0.10079
0.10079
0.10079
0.10079
0.15329
0.11591
0.1333
0.15329
0.1333
0.11591
0.15329
0.17628
0.17628
0.1333
0.17628
0.17628
0.1333
0.15329
0.20273
0.11591
0.105
0.18364
0.12075
0.15969
0.13886
0.21119
0.15969
0.21119
0.15969
0.18364
0.15969
0.15969
0.18364
0.18364
0.21119
0.21119
0.24287
0.2793
0.2793
0.2793
0.13886
0.18364
0.18364
0.2793
0.21119
0.15969
0.13886
0.13886
0.18364
0.15969
0.13886
0.12075
0.12075
0.13886
0.12075
0.13886
0.12075
0.105
0.13886
0.13886
0.13886
0.13886
0.13886
0.21119
0.13886
0.12075
0.105
0.21119
0.13886
0.13886
0.15969
0.105
0.105
0.21119
0.105
0.15969
0.12075
0.105
0.12075
0.18364
0.15969
0.105
0.21119
0.105
0.13192
0.099752
0.075427
0.11472
0.075427
0.075427
0.099752
0.13192
0.13192
0.15171
0.11472
0.17447
0.11472
0.099752
0.15171
0.20064
0.086741
0.11472
0.099752
0.099752
0.099752
0.099752
0.099752
0.11472
0.15171
0.17447
0.13192
0.099752
0.15171
0.13192
0.11472
0.20064
0.075427
0.13192
0.099752
0.099752
0.099752
0.13192
0.086741
0.13192
0.086741
0.086741
0.086741
0.11472
0.11472
0.11472
0.099752
0.086741
0.075427
0.11472
0.11472
0.075427
0.075427
0.11472
0.099752
0.099752
0.26534
0.13192
0.11472
0.099752
0.099752
0.075427
0.099752
0.08973
0.08973
0.13647
0.11867
0.11867
0.11867
0.10319
0.10319
0.20755
0.15694
0.15694
0.15694
0.08973
0.10319
0.11867
0.10319
0.08973
0.11867
0.18048
0.10319
0.11867
0.11867
0.10319
0.08973
0.10319
0.15694
0.11867
0.11867
0.11867
0.11867
0.23868
0.08973
0.23868
0.13647
0.18048
0.18048
0.11867
0.08973
0.10319
0.08973
0.11867
0.13647
0.11867
0.10319
0.10319
0.10319
0.18048
0.15694
0.13647
0.10319
0.11867
0.10319
0.11867
0.13647
0.10319
0.20755
0.08973
0.08973
0.13647
0.08973
0.13647
0.11867
0.15694
0.11867
0.14522
0.14522
0.167
0.19205
0.22086
0.14522
0.14522
0.29208
0.14522
0.19205
0.12628
0.10981
0.22086
0.167
0.19205
0.12628
0.14522
0.22086
0.167
0.12628
0.12628
0.12628
0.12628
0.14522
0.25399
0.25399
0.19205
0.29208
0.12628
0.167
0.14522
0.14522
0.167
0.14522
0.167
0.25399
0.167
0.22086
0.167
0.167
0.19205
0.19205
0.22086
0.19205
0.167
0.25399
0.167
0.25399
0.22086
0.22086
0.25399
0.3359
0.19205
0.167
0.167
0.167
0.19205
0.19205
0.25399
0.19205
0.14522
0.19205
0.12628
0.19205
0.15502
0.15502
0.17827
0.23577
0.1348
0.11722
0.20502
0.17827
0.1348
0.11722
0.15502
0.20502
0.17827
0.11722
0.20502
0.1348
0.11722
0.1348
0.1348
0.15502
0.1348
0.10193
0.1348
0.15502
0.17827
0.10193
0.11722
0.11722
0.1348
0.1348
0.1348
0.10193
0.1348
0.15502
0.20502
0.11722
0.1348
0.15502
0.23577
0.1348
0.10193
0.088634
0.11722
0.11722
0.15502
0.1348
0.11722
0.15502
0.20502
0.20502
0.27113
0.17827
0.23577
0.23577
0.17827
0.15502
0.15502
0.17827
0.17827
0.17827
0.15502
0.1348
0.17827
0.15502
0.10372
0.11928
0.11928
0.15775
0.11928
0.090193
0.11928
0.090193
0.18141
0.10372
0.23992
0.13717
0.10372
0.10372
0.13717
0.10372
0.10372
0.090193
0.090193
0.090193
0.090193
0.15775
0.13717
0.15775
0.078429
0.10372
0.15775
0.10372
0.10372
0.11928
0.10372
0.15775
0.11928
0.13717
0.13717
0.2759
0.090193
0.11928
0.11928
0.068199
0.11928
0.13717
0.18141
0.11928
0.15775
0.15775
0.10372
0.078429
0.20862
0.15775
0.15775
0.18141
0.11928
0.090193
0.11928
0.11928
0.10372
0.11928
0.10372
0.10372
0.11928
0.11928
0.15775
0.18141
0.099088
0.11395
0.1507
0.11395
0.17331
0.11395
0.11395
0.17331
0.13104
0.13104
0.1507
0.1507
0.11395
0.099088
0.11395
0.17331
0.11395
0.099088
0.17331
0.099088
0.086164
0.11395
0.099088
0.13104
0.13104
0.13104
0.1993
0.1507
0.1993
0.1507
0.1507
0.11395
0.13104
0.11395
0.1507
0.074925
0.1507
0.11395
0.11395
0.17331
0.13104
0.1993
0.13104
0.13104
0.099088
0.099088
0.11395
0.13104
0.099088
0.13104
0.086164
0.099088
0.099088
0.086164
0.099088
0.086164
0.099088
0.13104
0.099088
0.086164
0.13104
0.11395
0.13104
0.086164
0.18002
0.18002
0.18002
0.18002
0.18002
0.18002
0.18002
0.23808
0.18002
0.20702
0.18002
0.20702
0.20702
0.23808
0.18002
0.18002
0.18002
0.20702
0.20702
0.18002
0.31486
0.23808
0.18002
0.23808
0.31486
0.20702
0.23808
0.18002
0.20702
0.18002
0.18002
0.20702
0.23808
0.18002
0.23808
0.18002
0.18002
0.20702
0.20702
0.18002
0.18002
0.18002
0.18002
0.18002
0.18002
0.20702
0.18002
0.18002
0.18002
0.18002
0.20702
0.20702
0.23808
0.18002
0.18002
0.18002
0.08682
0.08682
0.08682
0.08682
0.08682
0.08682
0.08682
0.08682
0.08682
0.08682
0.08682
0.08682
0.099842
0.08682
0.11482
0.08682
0.08682
0.08682
0.08682
0.08682
0.08682
0.15185
0.08682
0.08682
0.08682
0.08682
0.08682
0.11482
0.099842
0.11482
0.08682
0.08682
0.099842
0.13204
0.15185
0.099842
0.08682
0.08682
0.08682
0.08682
0.17463
0.099842
0.099842
0.099842
0.099842
0.08682
0.099842
0.099842
0.08682
0.15185
0.08682
0.08682
0.08682
0.08682
0.08682
0.099842
0.08682
0.08682
0.08682
0.08682
0.08682
0.08682
0.099842
0.11482
0.08682
0.11482
0.099842
0.099842
0.08682
0.099842
0.11482
0.099842
0.099842
0.11482
0.099842
0.11482
0.08682
0.08682
0.099842
0.13204
0.15185
0.13204
0.11482
0.11482
0.08682
0.099842
0.20082
0.11482
0.099842
0.099842
0.15185
0.11482
0.08682
0.08682
0.08682
0.08682
0.08682
0.099842
0.099842
0.08682
0.08682
0.099842
0.08682
0.13204
0.11482
0.099842
0.08682
0.099842
0.08682
0.08682
0.099842
0.11482
0.08682
0.08682
0.08682
0.08682
0.099842
0.08682
0.08682
0.11482
0.099842
0.08682
0.1332
0.1332
0.1332
0.15318
0.15318
0.15318
0.1332
0.30811
0.17616
0.1332
0.1332
0.15318
0.1332
0.1332
0.15318
0.1332
0.1332
0.15318
0.1332
0.1332
0.1332
0.15318
0.1332
0.20258
0.20258
0.17616
0.17616
0.15318
0.15318
0.23297
0.17616
0.17616
0.1332
0.17616
0.15318
0.15318
0.1332