# vtk DataFile Version 3.0
vtk output
ASCII
DATASET POLYDATA
POINTS 30864 float
-2.5092 -128.32 -80.361
21.204 -114.34 -110.55
31.853 -110.54 -122.2
37.627 -106.5 -136.38
39.765 -100.36 -147.71
40.434 -98.442 -151.27
38.674 -93.358 -159.14
36.848 -88.989 -168.2
37.896 -89.956 -162.61
43.463 -97.784 -160.64
46.476 -87.916 -154.71
43.964 -106.46 -143.44
45.087 -106.55 -145.04
49.209 -105.18 -149.55
49.743 -110.52 -157.26
58.211 -96.378 -142.84
32.34 -107.62 -123.34
36.411 -94.801 -127.58
36.246 -94.643 -127.61
35.216 -95.795 -116.77
35.682 -94.683 -115.49
33.288 -94.223 -115.52
32.629 -93.005 -113.39
30.073 -88.308 -114.25
39.99 -89.618 -128.7
40.459 -88.07 -129.09
50.017 -81.943 -126.98
31.223 -118.91 -111.81
34.095 -120.16 -110.08
36.987 -122.64 -96.689
45.096 -116.74 -88.909
44.479 -125.45 -119.86
51.371 -133.49 -129.31
52.09 -123.53 -120.74
60.94 -124.13 -121.49
38.157 -126.58 -101.87
48.579 -131.26 -93.425
49.442 -131.89 -91.61
60.432 -117.42 -115.35
55.92 -129.18 -92.184
40.051 -135.01 -98.699
43.747 -143.04 -100.87
49.555 -147.44 -99.956
37.582 -121.66 -88.959
39.306 -116.3 -73.763
38.75 -115.83 -71.762
48.605 -153.03 -104.71
50.682 -154.75 -105.14
48.746 -156.09 -105.78
42.378 -113.07 -67.63
38.095 -124.38 -77.428
42.898 -128.36 -65.008
37.043 -130.1 -63.626
37.627 -154.83 -91.585
36.651 -157.75 -89.968
33.701 -171.71 -95.152
40.926 -90.54 -182.38
43.141 -78.544 -180.27
33.702 -83.439 -159.41
31.312 -87.09 -163.22
42.821 -100.54 -163.57
54.311 -96.036 -170.32
49.503 -77.956 -155.42
57.823 -82.284 -163.52
50.548 -106.56 -149.28
50.161 -102.94 -150.68
62.083 -120.62 -176.58
67.195 -111.65 -171.57
68.74 -93.075 -149.97
67.706 -97.281 -141.87
32.277 -95.549 -128.61
34.684 -95.227 -130.76
40.156 -93.898 -114.01
38.095 -95.893 -112.47
39.454 -87.89 -103.56
33.388 -93.132 -106.99
32.715 -79.825 -109.2
28.289 -82.599 -105.4
36.387 -81.303 -130.4
36.484 -84.987 -132.9
56.412 -78.967 -120.11
51.113 -72.898 -128.53
36.192 -90.088 -190.56
40.171 -96.109 -188.53
41.551 -71.796 -189.42
53.922 -73.037 -190.32
29.15 -79.211 -158.6
33.069 -78.225 -157.87
26.781 -90.02 -161.55
27.554 -87.358 -166.93
39.532 -101.74 -165.85
40.792 -103.37 -162.93
58.28 -93.614 -173.56
55.315 -97.443 -173.5
51.847 -72.778 -153.26
48.271 -70.041 -157.1
66.283 -79.239 -166.42
63.241 -76.018 -169.34
50.559 -108.7 -150.8
52.162 -107.18 -146.62
51.198 -100.92 -149.78
48.604 -101.22 -151.51
75.614 -128.67 -189.11
65.988 -121.91 -188.88
77.824 -111.36 -173.72
77.234 -106 -186.21
76.645 -94.556 -152.12
73.648 -87.625 -150.66
70.747 -100.55 -140.72
72.726 -94.443 -138.18
28.815 -93.654 -128.85
30.251 -98.379 -129.33
33.742 -98.663 -133.86
36.203 -95.61 -132.98
41.704 -92.77 -115.43
43.902 -95.974 -114.87
38.932 -98.072 -112.44
37.419 -98.293 -110.92
40.462 -84.221 -94.581
44.709 -82.257 -98.185
34.008 -95.013 -105.98
32.223 -94.43 -105.82
31.042 -73.412 -108.36
35.837 -74.194 -107.93
28.405 -79.192 -95.292
25.123 -78.873 -103.95
32.95 -77.089 -129.06
32.658 -76.429 -133.47
31.503 -84.631 -135.02
37.118 -84.67 -135.7
59.485 -73.668 -115.61
61.971 -80.036 -117.53
53.564 -68.22 -132.18
50.189 -66.262 -126.18
31.573 -88.432 -193.7
33.384 -92.316 -197.23
34.923 -102.18 -192.94
42.357 -99.577 -191.07
39.942 -65.953 -189.28
38.284 -69.984 -198.27
57.536 -66.194 -196.39
61.104 -72.797 -198.81
25.729 -77.358 -159.92
26.721 -74.245 -157.6
32.549 -73.182 -159.46
34.317 -77.412 -156.42
25.272 -91.481 -158.42
23.699 -94.071 -162.5
24.709 -91.14 -170.34
26.026 -85.136 -169.62
36.22 -104.8 -168.24
38.355 -100.25 -167.2
39.341 -104.08 -160.87
41.67 -106.29 -164.06
59.861 -92.403 -172.63
58.819 -92.517 -176.91
53.766 -99.09 -174.72
57.053 -100.58 -173.6
56.043 -69.873 -153.11
52.508 -72.614 -150.86
48.618 -64.9 -160.53
46.359 -63.429 -155.65
71.999 -79.865 -169
70.646 -75.525 -164.92
68.595 -71.46 -171.51
62.908 -71.753 -171.09
53.873 -110.77 -152.28
50.982 -109.5 -153.8
51.886 -106.72 -143.28
55.211 -108.04 -146.05
52.102 -97.278 -150.15
53.018 -99.756 -148.69
47.005 -98.535 -151.34
46.53 -101.29 -151.95
85.491 -129.31 -194.77
80.746 -135.69 -200.09
64.398 -119.3 -192.14
62.239 -124.01 -192.98
81.721 -114.94 -172.46
82.445 -109.6 -171.17
86.244 -105.71 -194.3
81.359 -99.306 -193.56
80.63 -98.119 -152.8
82.969 -93.081 -153.87
77.906 -83.848 -148.29
74.426 -83.434 -151.1
73.038 -103.44 -142.59
70.025 -102.66 -138.48
78.546 -94.343 -135.63
73.483 -91.389 -135.55
27.194 -91.665 -129.01
26.418 -92.783 -127.84
28.771 -100.48 -127.71
30.773 -100.48 -128.98
34.414 -100.11 -136.25
30.617 -100.56 -136.57
39.557 -97.085 -132.67
38.589 -94.257 -133.32
42.754 -90.382 -114.67
40.936 -91.504 -117.19
47.172 -95.839 -114
46.353 -97.263 -117.74
39.693 -98.769 -113.06
37.796 -100.09 -114.21
35.316 -100.7 -112.08
35.783 -98.902 -110.55
39.98 -81.082 -89.128
43.163 -81.253 -88.476
47.028 -76.557 -95.495
49.957 -80.626 -95.174
34.336 -96.133 -103.18
35.679 -95.222 -105.46
30.573 -95.283 -106.6
31.654 -93.942 -104.43
28.259 -70.923 -109
31.291 -68.168 -109.02
38.389 -72.705 -108.07
37.55 -68.489 -105.26
26.186 -77.498 -89.345
30.246 -75.099 -90.543
22.405 -78.965 -104.69
23.265 -77.276 -106.22
33.102 -74.305 -127.37
28.402 -75.869 -127.6
32.535 -72.03 -135.78
27.932 -72.623 -134.62
27.725 -84.089 -135.04
28.784 -85.501 -137.51
39.042 -86.001 -137.38
39.711 -83.339 -136.52
63.926 -70.14 -114.79
60.093 -70.85 -110.33
68.19 -78.742 -117.24
63.023 -82.744 -117.09
56.534 -68.022 -134.46
55.902 -63.027 -133.7
47.819 -62.816 -123.36
49.8 -60.926 -127.15
30.717 -85.655 -193.67
27.583 -89.116 -192.88
34.563 -91.792 -201.95
28.702 -92.971 -202.64
30.459 -105.06 -192.71
33.289 -106.96 -198.22
44.521 -100.47 -190.38
44.995 -99.245 -194.95
41.45 -62.506 -187.78
36.246 -64.371 -187.67
37.923 -70.297 -205.69
35.765 -66.178 -202.85
59.984 -61.462 -195.6
57.376 -61.748 -204.62
68.257 -72.356 -201.85
63.843 -71.071 -207.33
22.635 -78.116 -158.44
23.855 -76.468 -162.5
25.99 -70.049 -155.55
23.709 -71.932 -157.54
30.886 -68.626 -162.19
33.931 -71.584 -161.41
37.431 -77.819 -156.61
34.535 -78.414 -154.46
22.48 -91.191 -156.36
26.471 -92.28 -156.48
20.89 -95.454 -161.95
22.665 -98.253 -162.96
24.772 -92.909 -172.92
21.122 -92.871 -172.49
27.294 -84.396 -172.32
24.93 -82.302 -170.84
35.764 -105.91 -171.35
32.626 -106.43 -168.24
39.118 -98.734 -169.53
38.663 -97.428 -166.83
36.914 -105.62 -159.51
38.915 -103.18 -159.51
42.937 -107.3 -163.64
43.203 -108.51 -166.31
62.614 -93.324 -171.11
59.117 -90.024 -170.81
60.446 -90.695 -178.74
57.614 -92.234 -179.79
52.224 -99.466 -177.05
52.081 -100.04 -174.04
57.102 -104.58 -174.21
59.531 -102.04 -172.33
58.831 -66.64 -151.74
59.085 -68.161 -154.27
53.562 -74.79 -149.58
50.867 -72.801 -149.16
46.913 -62.948 -163.78
51.344 -60.109 -162.57
43.858 -60.301 -153.18
46.134 -57.869 -156.32
76.402 -78.883 -172.27
75.572 -81.861 -169.59
73.787 -74.32 -163.23
71.929 -71.736 -162.9
70.576 -65.877 -171.34
73.282 -69.776 -175.61
61.889 -67.889 -170.71
61.211 -71.253 -173.54
57.434 -111.34 -152.86
56.396 -113.19 -155.11
51.904 -108.65 -155.71
50.125 -111.18 -154.99
50.849 -105.85 -141.9
53.113 -106.98 -140.73
56.998 -109.55 -145.17
56.664 -107.15 -146.04
53.622 -94.973 -152.36
53.331 -94.691 -148.76
56.214 -99.667 -150.2
54.015 -98.579 -145.98
44.736 -97.346 -151.01
46.738 -96.095 -153.01
45.052 -101.5 -150.37
45.786 -102.5 -152.04
91.273 -131.94 -194.59
91.179 -127.28 -197.29
86.862 -142.34 -206.86
84.025 -136.3 -207.82
65.971 -117.81 -195.42
63.087 -116.74 -191.48
62.182 -126.54 -195.71
57.752 -123.68 -196.32
85.342 -117.51 -173.79
81.862 -117.52 -169.6
83.618 -106.61 -171.13
88.812 -109.88 -169.61
92.839 -102.19 -200.41
91.111 -108.06 -200.59
86.038 -93.545 -194.99
81.17 -96.105 -199.99
80.3 -100.63 -153.8
86.175 -100.91 -151.32
86.021 -91.347 -157.24
88.102 -93.437 -152.66
79.357 -80.703 -144.92
81.261 -80.272 -148.99
72.738 -81.405 -149.58
73.71 -82.528 -152.48
73.001 -104.52 -144.94
74.729 -106.79 -142.94
67.58 -102.98 -137.76
69.931 -102.82 -135.54
80.928 -93.638 -132.12
83.149 -94.045 -135.77
71.869 -91.22 -132.77
72.38 -89.031 -135.92
27.646 -90.456 -129.4
27.469 -89.972 -127.77
23.712 -91.06 -127.57
26.263 -92.299 -125.92
28.126 -102.68 -127.16
27.364 -101.3 -126.97
32.002 -101.22 -126.64
32.496 -101.52 -128.59
35.323 -102.22 -136.38
34.624 -99.679 -138.51
29.472 -102.2 -139.58
27.899 -100.29 -137.76
41.068 -98.777 -131.4
42.669 -96.976 -133.2
40.02 -92.945 -132.19
38.866 -93.445 -134.69
42.823 -88.952 -113.09
44.616 -87.809 -115.71
41.595 -90.626 -119.26
39.094 -89.959 -117.18
48.639 -96.028 -112
49.339 -94.227 -113.6
48.014 -99.418 -119.18
48.515 -96.749 -120.18
41.35 -99.988 -112.03
41.107 -98.763 -112.74
38.21 -101.58 -116.12
36.854 -99.562 -115.75
33.52 -101.55 -114.05
32.72 -102.75 -112.05
33.996 -97.722 -111.14
35.6 -100.09 -109.54
38.724 -82.548 -86.516
38.72 -80.437 -88.666
43.294 -77.816 -82.064
46.291 -77.356 -84.444
50.651 -72.514 -92.555
47.046 -72.299 -94.076
54.547 -77.853 -92.845
52.326 -82.06 -95.184
33.848 -96.405 -101.1
36.135 -96.405 -101.77
37.741 -93.858 -104.07
36.54 -95.058 -106.07
29.874 -96.896 -107.16
29.093 -93.93 -108.67
30.83 -91.092 -104.06
32.524 -91.755 -103.18
25.757 -69.453 -108.05
25.984 -70.105 -111.76
30.005 -64.817 -107.71
30.851 -64.981 -111.88
39.698 -72.717 -110.13
40.379 -73.803 -107.73
38.952 -64.031 -105.17
39.029 -66.017 -102.49
26.241 -75.309 -84.248
24.417 -77.69 -85.206
30.145 -71.51 -87.447
32.369 -72.329 -89.239
20.37 -77.499 -103.2
21.828 -80.173 -105.07
20.986 -75.585 -106.76
23.026 -77.547 -108.62
34.56 -72.468 -126.95
33.387 -74.351 -125.39
26.335 -74.358 -125.52
25.069 -76.992 -127.01
33.962 -70.572 -137.49
32.274 -67.045 -136.12
25.062 -70.614 -136.94
25.673 -69.907 -133.28
25.719 -84.064 -134.22
23.495 -83.842 -136.56
27.345 -87.297 -138.62
27.467 -85.023 -140.04
40.96 -86.324 -139.63
38.958 -87.574 -138.38
42.79 -83.582 -136.69
40.503 -81.724 -135.97
65.206 -66.594 -114.48
67.381 -68.802 -115.62
60.094 -66.726 -107.98
62.173 -71.452 -106.06
72.249 -78.591 -119.08
71.898 -78.105 -114.19
62.953 -84.703 -119.18
[...]
POINT_DATA 30864
SCALARS radius double 
LOOKUP_TABLE default 
6.7174
4.1595
2.5267
2.2242
1.5056
1.6867
0.72883
0.58138
0.49308
0.79993
0.59226
1.3319
1.6148
0.73789
1.0483
0.69507
2.0134
0.94679
0.85046
0.97451
0.53106
0.8012
0.54953
0.61385
0.78558
0.54525
0.49484
3.3724
2.9226
1.7304
0.84171
1.2726
0.62806
0.82481
0.52734
1.5922
0.7952
0.48867
0.59368
0.58377
1.4231
1.13
0.61208
1.0507
0.97432
0.7012
0.97257
0.5267
0.4281
0.91786
0.75423
0.63687
0.78828
1.1741
0.89678
0.6513
0.38227
0.50555
0.32421
0.42876
0.45736
0.69559
0.44783
0.515
0.64164
0.36686
0.79264
0.91153
0.60441
0.60441
0.55919
0.73953
0.46179
0.40156
0.47785
0.20659
0.53379
0.46416
0.47413
0.35851
0.37417
0.4303
0.28905
0.33241
0.43961
0.43961
0.28192
0.28192
0.37284
0.32421
0.39771
0.39771
0.60486
0.60486
0.38942
0.38942
0.44783
0.38942
0.48517
0.55795
0.31901
0.31901
0.68925
0.52117
0.59935
0.79264
0.52557
0.45702
0.34557
0.52557
0.48625
0.42283
0.64307
0.48625
0.30364
0.40156
0.34918
0.22959
0.36133
0.41553
0.17964
0.17964
0.46416
0.46416
0.40362
0.40362
0.27109
0.41229
0.23573
0.31175
0.28293
0.32537
0.37417
0.32537
0.21856
0.25135
0.25135
0.28905
0.28905
0.38227
0.38227
0.38227
0.24515
0.21317
0.21317
0.24515
0.21317
0.32421
0.28192
0.24515
0.34583
0.34583
0.2615
0.34583
0.45736
0.52597
0.34583
0.52597
0.33862
0.25605
0.33862
0.33862
0.38942
0.29446
0.33862
0.33862
0.42189
0.20975
0.48517
0.20975
0.2774
0.2774
0.2774
0.2774
0.52117
0.59935
0.39408
0.45319
0.45319
0.52117
0.68925
0.52117
0.45702
0.39741
0.39741
0.2613
0.2613
0.3005
0.39741
0.45702
0.24175
0.42283
0.36768
0.24175
0.31972
0.55919
0.42283
0.36768
0.26403
0.22959
0.30364
0.34918
0.17361
0.30364
0.19965
0.17361
0.23758
0.3142
0.36133
0.27321
0.13584
0.15621
0.11812
0.15621
0.30519
0.40362
0.26539
0.40362
0.35097
0.35097
0.23077
0.35097
0.23573
0.20498
0.35851
0.31175
0.20498
0.20498
0.23573
0.27109
0.21393
0.24602
0.28293
0.28293
0.28293
0.32537
0.28293
0.18603
0.16526
0.19005
0.16526
0.21856
0.19005
0.21856
0.16526
0.25135
0.25135
0.21856
0.33241
0.25135
0.33241
0.21856
0.25135
0.33241
0.21317
0.14016
0.18537
0.14016
0.18537
0.18537
0.21317
0.14016
0.14016
0.18537
0.16119
0.28192
0.21317
0.24515
0.16119
0.21317
0.30072
0.30072
0.30072
0.2615
0.22739
0.22739
0.22739
0.30072
0.2615
0.39771
0.39771
0.45736
0.30072
0.2615
0.45736
0.30072
0.29446
0.22265
0.22265
0.16836
0.25605
0.29446
0.29446
0.29446
0.33862
0.22265
0.25605
0.25605
0.25605
0.29446
0.19361
0.29446
0.24122
0.36686
0.18239
0.18239
0.24122
0.42189
0.18239
0.18239
0.24122
0.20975
0.24122
0.20975
0.18239
0.24122
0.18239
0.24122
0.34268
0.45319
0.52117
0.52117
0.25911
0.34268
0.29798
0.39408
0.39408
0.29798
0.25911
0.45319
0.59935
0.39408
0.45319
0.29798
0.3005
0.39741
0.34557
0.2613
0.34557
0.2613
0.22722
0.22722
0.19758
0.22722
0.19758
0.2613
0.34557
0.3005
0.22722
0.39741
0.21022
0.21022
0.27802
0.36768
0.31972
0.1828
0.21022
0.21022
0.27802
0.24175
0.48625
0.31972
0.31972
0.36768
0.31972
0.21022
0.19965
0.22959
0.15096
0.19965
0.26403
0.19965
0.19965
0.30364
0.15096
0.13127
0.26403
0.13127
0.17361
0.17361
0.15096
0.13127
0.17964
0.20659
0.27321
0.23758
0.3142
0.17964
0.23758
0.17964
0.11812
0.11812
0.13584
0.077665
0.10271
0.10271
0.13584
0.10271
0.20067
0.26539
0.20067
0.35097
0.23077
0.1745
0.35097
0.26539
0.30519
0.26539
0.30519
0.23077
0.20067
0.1745
0.1745
0.30519
0.15499
0.20498
0.17824
0.17824
0.17824
0.31175
0.27109
0.17824
0.1172
0.17824
0.17824
0.15499
0.17824
0.20498
0.23573
0.15499
0.16177
0.18603
0.18603
0.21393
0.24602
0.24602
0.18603
0.24602
0.16177
0.24602
0.28293
0.18603
0.24602
0.24602
0.16177
0.16177
0.14371
0.14371
0.14371
0.16526
0.14371
0.14371
0.19005
0.14371
0.16526
0.10866
0.19005
0.16526
0.12496
0.14371
0.21856
0.12496
0.21856
0.16526
0.19005
0.14371
0.28905
0.19005
0.21856
0.19005
0.28905
0.16526
0.19005
0.19005
0.14371
0.21856
0.21856
0.28905
0.18537
0.10598
0.12188
0.12188
0.14016
0.16119
0.12188
0.10598
0.14016
0.16119
0.16119
0.16119
0.18537
0.10598
0.10598
0.12188
0.10598
0.12188
0.16119
0.10598
0.14016
0.10598
0.24515
0.16119
0.18537
0.14016
0.21317
0.14016
0.14016
0.14016
0.18537
0.16119
0.2615
0.2615
0.2615
0.19773
0.2615
0.22739
0.22739
0.19773
0.19773
0.19773
0.19773
0.14951
0.14951
0.19773
0.2615
0.22739
0.22739
0.22739
0.34583
0.2615
0.30072
0.34583
0.39771
0.30072
0.2615
0.22739
0.22739
0.17194
0.39771
0.22739
0.2615
0.22739
0.16836
0.25605
0.16836
0.19361
0.19361
0.1464
0.1464
0.1464
0.22265
0.16836
0.25605
0.25605
0.25605
0.25605
0.25605
0.22265
0.25605
0.29446
0.19361
0.16836
0.19361
0.22265
0.22265
0.1464
0.22265
0.22265
0.25605
0.16836
0.16836
0.16836
0.22265
0.25605
0.20975
0.1586
0.31901
0.18239
0.1586
0.1586
0.13792
0.1586
0.20975
0.1586
0.18239
0.36686
0.1586
0.1586
0.1586
0.11993
0.18239
0.20975
0.18239
0.18239
0.20975
0.1586
0.1586
0.18239
0.1586
0.1586
0.20975
0.20975
0.1586
0.1586
0.20975
0.11993
0.25911
0.29798
0.39408
0.22532
0.45319
0.39408
0.45319
0.34268
0.22532
0.22532
0.25911
0.29798
0.25911
0.25911
0.25911
0.34268
0.29798
0.34268
0.25911
0.22532
0.19593
0.22532
0.39408
0.25911
0.52117
0.45319
0.34268
0.34268
0.39408
0.25911
0.25911
0.25911
0.2613
0.19758
0.34557
0.19758
0.22722
0.3005
0.22722
0.22722
0.3005
0.2613
0.22722
0.22722
0.19758
0.17181
0.17181
0.19758
0.1494
0.17181
0.19758
0.19758
0.17181
0.17181
0.22722
0.1494
0.2613
0.3005
0.19758
0.2613
0.19758
0.17181
0.22722
0.34557
0.1828
0.1828
0.1828
0.15896
0.24175
0.1828
0.31972
0.24175
0.27802
0.27802
0.15896
0.15896
0.15896
0.1828
0.1828
0.24175
0.21022
0.21022
0.1828
0.42283
0.27802
0.24175
0.27802
0.27802
0.15896
0.31972
0.21022
0.1828
0.27802
0.1828
0.1828
0.17361
0.15096
0.17361
0.19965
0.13127
0.13127
0.13127
0.17361
0.13127
0.22959
0.17361
0.17361
0.17361
0.15096
0.19965
0.26403
0.11415
0.13127
0.11415
0.11415
0.11415
0.22959
0.11415
0.11415
0.13127
0.15096
0.15096
0.13127
0.11415
0.11415
0.11415
0.13584
0.15621
0.11812
0.17964
0.23758
0.17964
0.20659
0.17964
0.15621
0.27321
0.13584
0.15621
0.15621
0.20659
0.15621
0.13584
0.10271
0.10271
0.089314
0.10271
0.11812
0.11812
0.089314
0.077665
0.089314
0.11812
0.077665
0.089314
0.089314
0.1745
0.15174
0.23077
0.13194
0.1745
0.1745
0.23077
0.30519
0.15174
0.20067
0.15174
0.15174
0.20067
0.30519
0.15174
0.23077
0.26539
0.15174
0.23077
0.15174
0.23077
0.26539
0.15174
0.20067
0.1745
0.15174
0.15174
0.13194
0.11473
0.15174
0.26539
0.15174
0.13478
0.13478
0.1172
0.17824
0.15499
0.13478
0.13478
0.15499
0.15499
0.15499
0.27109
0.17824
0.20498
0.23573
0.15499
0.15499
0.088619
0.10191
0.15499
0.15499
0.15499
0.10191
0.13478
0.13478
0.15499
0.1172
0.17824
0.10191
0.20498
0.15499
0.13478
0.13478
0.10636
0.14067
0.14067
0.16177
0.16177
0.14067
0.18603
0.12232
0.21393
0.14067
0.16177
0.21393
0.14067
0.16177
0.14067
0.21393
0.14067
0.14067
0.18603
0.21393
0.21393
0.24602
0.14067
0.16177
0.16177
0.21393
0.18603
0.21393
0.14067
0.14067
0.14067
0.14067
0.09449
0.12496
0.09449
0.12496
0.12496
0.10866
0.09449
0.14371
0.12496
0.10866
0.12496
0.10866
0.16526
0.16526
0.10866
0.12496
0.12496
0.14371
0.09449
0.09449
0.16526
0.16526
0.12496
0.14371
0.082166
0.10866
0.10866
0.12496
0.12496
0.19005
0.10866
0.09449
0.14371
0.19005
0.14371
0.10866
0.16526
0.14371
0.10866
0.12496
0.19005
0.25135
0.16526
0.16526
0.10866
0.19005
0.16526
0.12496
0.25135
0.12496
0.14371
0.14371
0.14371
0.16526
0.16526
0.16526
0.12496
0.12496
0.16526
0.19005
0.19005
0.12496
0.16526
0.25135
0.14016
0.16119
0.069686
0.09216
0.10598
0.10598
0.10598
0.09216
0.12188
0.10598
0.14016
0.10598
0.10598
0.069686
0.09216
0.12188
0.09216
0.14016
0.14016
0.069686
0.14016
0.080139
0.14016
0.10598
0.16119
0.09216
0.09216
0.09216
0.09216
0.10598
0.09216
0.069686
0.09216
0.10598
0.10598
0.14016
0.09216
0.09216
0.09216
0.10598
0.12188
0.09216
0.09216
0.10598
0.21317
0.12188
0.14016
0.069686
0.16119
0.10598
0.12188
0.18537
0.12188
0.12188
0.10598
0.09216
0.12188
0.12188
0.09216
0.16119
0.10598
0.14016
0.10598
0.17194
0.22739
0.22739
0.14951
0.19773
0.22739
0.17194
0.13001
0.13001
0.22739
0.17194
0.19773
0.14951
0.19773
0.17194
0.14951
0.17194
0.17194
0.17194
0.14951
0.17194
0.14951
0.13001
0.13001
0.13001
0.13001
0.13001
0.17194
0.17194
0.22739
0.13001
0.19773
0.14951
0.19773
0.17194
0.19773
0.30072
0.19773
0.22739
0.19773
0.19773
0.2615
0.30072
0.19773
0.30072
0.34583
0.19773
0.2615
0.22739
0.14951
0.19773
0.17194
0.19773
0.14951
0.13001
0.14951
0.2615
0.34583
0.19773
0.19773
0.22739
0.22739
0.19773
0.19773
0.1273
0.1464
0.22265
0.16836
0.1107
0.1464
0.1273
0.16836
0.16836
0.1107
0.1107
0.1273
0.1107
0.1273
0.1107
0.1273
0.1273
0.19361
0.1464
0.1464
0.22265
0.16836
0.22265
0.19361
0.1464
0.22265
0.22265
0.1464
0.22265
0.19361
0.19361
0.1273
0.22265
0.1464
0.25605
0.19361
0.16836
0.16836
0.1464
0.1107
0.16836
0.1464
0.19361
0.1464
0.19361
0.16836
0.1107
0.1273
0.19361
0.16836
0.19361
0.1464
0.16836
0.22265
0.1464
0.1464
0.1464
0.1273
0.1464
0.1464
0.1273
0.19361
0.19361
0.22265
0.13792
0.18239
0.13792
0.13792
0.18239
0.2774
0.1586
0.1586
0.13792
0.13792
0.13792
0.11993
0.11993
0.11993
0.13792
0.13792
0.11993
0.18239
0.13792
0.13792
0.13792
0.1586
0.31901
0.11993
0.13792
0.13792
0.13792
0.11993
0.13792
0.1586
0.13792
0.18239
0.18239
0.1586
0.1586
0.13792
0.1586
0.13792
0.18239
0.13792
0.13792
0.11993
0.13792
0.1586
0.13792
0.13792
0.13792
0.13792
0.13792
0.1586
0.18239
0.13792
0.18239
0.11993
0.13792
0.13792
0.11993
0.13792
0.18239
0.22532
0.19593
0.25911
0.22532
0.22532
0.34268
0.19593
0.19593
0.29798
0.39408
0.22532
0.34268
0.25911
0.39408
0.19593
0.29798
0.19593
0.19593
0.19593
0.17037
0.22532
0.17037
0.25911
0.17037
0.22532
0.17037
0.22532
0.17037
0.22532
0.19593
0.19593
0.29798
0.25911
0.19593
0.29798
0.19593
0.19593
0.22532
0.14815
0.19593
0.12883
0.17037
0.19593
0.14815
0.19593
0.34268
0.19593
0.22532
0.29798
0.45319
0.39408
0.25911
0.29798
0.25911
0.19593
0.29798
0.34268
0.19593
0.22532
0.19593
0.22532
0.22532
0.19593
0.22532
0.1494
0.22722
0.17181
0.17181
0.3005
0.2613
0.17181
0.17181
0.19758
0.19758
0.2613
0.2613
0.17181
0.19758
0.17181
0.19758
0.2613
0.17181
0.17181
0.22722
0.12991
0.19758
0.19758
0.17181
0.11297
0.17181
0.12991
0.1494
0.1494
0.12991
0.17181
0.17181
0.12991
0.12991
0.098233
0.1494
0.17181
0.1494
0.17181
0.17181
0.098233
0.1494
0.1494
0.1494
0.19758
0.1494
0.12991
0.098233
0.22722
0.22722
0.2613
0.19758
0.1494
0.17181
0.17181
0.22722
0.1494
0.17181
0.1494
0.12991
0.19758
0.1494
0.3005
0.17181
0.15896
0.15896
0.15896
0.15896
0.15896
0.15896
0.21022
0.15896
0.15896
0.15896
0.27802
0.15896
0.21022
0.15896
0.24175
0.15896
0.24175
0.1828
0.15896
0.15896
0.15896
0.15896
0.15896
0.21022
0.15896
0.15896
0.1828
0.1828
0.1828
0.15896
0.15896
0.21022
0.36768
0.24175
0.1828
0.21022
0.21022
0.24175
0.15896
0.24175
0.21022
0.27802
0.1828
0.1828
0.15896
0.15896
0.15896
0.15896
0.24175
0.15896
0.15896
0.15896
0.15896
0.15096
0.13127
0.13127
0.13127
0.15096
0.11415
0.17361
0.15096
0.11415
0.11415
0.11415
0.11415
0.11415
0.11415
0.15096
0.15096
0.11415
0.11415
0.19965
0.15096
0.13127
0.15096
0.13127
0.15096
0.15096
0.13127
0.13127
0.11415
0.17361
0.15096
0.22959
0.15096
0.11415
0.11415
0.19965
0.11415
0.11415
0.11415
0.13127
0.11415
0.11415
0.13127
0.11415
0.11415
0.11415
0.11812
0.10271
0.077665
0.13584
0.10271
0.15621
0.11812
0.17964
0.20659
0.15621
0.15621
0.10271
0.17964
0.15621
0.11812
0.13584
0.13584
0.15621
0.23758
0.089314
0.11812
0.13584
0.077665
0.077665
0.13584
0.17964
0.11812
0.11812
0.13584
0.10271
0.11812
0.089314
0.077665
0.089314
0.077665
0.077665
0.077665
0.089314
0.089314
0.089314
0.10271
0.10271
0.077665
0.077665
0.077665
0.077665
0.077665
0.077665
0.10271
0.077665
0.077665
0.077665
0.077665
0.077665
0.13194
0.15174
0.13194
0.099768
0.20067
0.11473
0.11473
0.11473
0.15174
0.13194
0.15174
0.11473
0.13194
0.20067
0.26539
0.15174
0.13194
0.13194
0.13194
0.1745
0.13194
0.13194
0.13194
0.13194
0.15174
0.1745
0.13194
0.26539
0.099768
0.13194
0.20067
0.15174
0.1745
0.23077
0.11473
0.13194
0.20067
0.13194
0.13194
0.13194
0.20067
0.20067
0.15174
0.23077
0.13194
0.13194
0.1745
0.099768
0.13194
0.15174
0.13194
0.13194
0.13194
0.11473
0.11473
0.099768
0.099768
0.13194
0.11473
0.15174
0.23077
0.13194
0.099768
0.1172
0.088619
0.10191
0.1172
0.088619
0.10191
0.10191
0.15499
0.13478
0.13478
0.10191
0.1172
0.088619
0.1172
0.13478
0.13478
0.1172
0.13478
0.13478
0.13478
0.23573
0.15499
0.15499
0.13478
0.17824
0.15499
0.10191
0.20498
0.1172
0.13478
0.088619
0.13478
0.088619
0.088619
0.13478
0.13478
0.10191
0.13478
0.13478
0.088619
0.088619
0.088619
0.10191
0.1172
0.10191
0.1172
0.10191
0.13478
0.10191
0.10191
0.15499
0.088619
0.088619
0.088619
0.17824
0.13478
0.10191
0.13478
0.1172
0.1172
0.1172
0.1172
0.09249
0.09249
0.12232
0.10636
0.10636
0.12232
0.12232
0.14067
0.10636
0.14067
0.12232
0.09249
0.12232
0.16177
0.10636
0.10636
0.18603
0.12232
0.12232
0.12232
0.14067
0.10636
0.14067
0.18603
0.10636
0.12232
0.14067
0.12232
0.10636
0.12232
0.16177
0.18603
0.10636
0.12232
0.10636
0.12232
0.16177
0.12232
0.18603
0.09249
0.14067
0.18603
0.21393
0.09249
0.10636
0.12232
0.09249
0.14067
0.14067
0.09249
0.16177
0.18603
0.16177
0.10636
0.18603
0.10636
0.10636
0.12232
0.12232
0.10636
0.12232
0.10636
0.12232
0.12232
0.082166
0.062129
0.10866
0.10866
0.082166
0.071448
0.10866
0.071448
0.10866
0.062129
0.09449
0.062129
0.082166
0.071448
0.071448
0.12496
0.10866
0.071448
0.09449
0.09449
0.09449
0.10866
0.054025
0.09449
0.09449
0.14371
0.14371
0.12496
0.09449
0.071448
0.10866
0.082166
0.071448
0.10866
0.10866
0.12496
0.071448
0.082166
0.082166
0.054025
0.09449
0.14371
0.14371
0.12496
0.10866
0.082166
0.10866
0.12496
0.071448
0.071448
0.071448
0.09449
0.09449
0.071448
0.10866
0.071448
0.10866
0.10866
0.16526
0.09449
0.09449
0.09449
0.082166
0.071448
0.09449
0.12496
0.16526
0.12496
0.12496
0.10866
0.09449
0.09449
0.12496
0.14371
0.12496
0.071448
0.09449
0.09449
0.09449
0.10866
0.14371
0.16526
0.14371
0.21856
0.10866
0.14371
0.14371
0.12496
0.09449
0.09449
0.10866
0.16526
0.09449
0.14371
0.10866
0.10866
0.12496
0.21856
0.10866
0.082166
0.082166
0.12496
0.12496
0.12496
0.10866
0.12496
0.14371
0.12496
0.14371
0.14371
0.14371
0.10866
0.10866
0.10866
0.10866
0.10866
0.14371
0.14371
0.14371
0.16526
0.16526
0.12496
0.082166
0.10866
0.14371
0.12496
0.12496
0.21856
0.12188
0.09216
0.09216
0.14016
0.080139
0.080139
0.09216
0.080139
0.080139
0.09216
0.09216
0.09216
0.069686
0.080139
0.080139
0.080139
0.10598
0.080139
0.09216
0.12188
0.09216
0.09216
0.069686
0.069686
0.09216
0.080139
0.069686
0.10598
0.10598
0.080139
0.080139
0.12188
0.10598
0.080139
0.12188
0.10598
0.12188
0.069686
0.069686
0.09216
0.12188
0.09216
0.09216
0.069686
0.14016
0.080139
0.069686
0.069686
0.080139
0.080139
0.080139
0.080139
0.09216
0.069686
0.080139
0.080139
0.080139
0.080139
0.09216
0.080139
0.09216
0.080139
0.080139
0.12188
0.080139
0.069686
0.069686
0.080139
0.080139
0.080139
0.09216
0.080139
0.069686
0.10598
0.080139
0.069686
0.080139
0.069686
0.069686
0.09216
0.09216
0.18537
0.10598
0.10598
0.12188
0.069686
0.14016
0.069686
0.09216
0.080139
0.10598
0.09216
0.16119
0.09216
0.10598
0.09216
0.10598
0.09216
0.080139
0.09216
0.069686
0.080139
0.09216
0.10598
0.10598
0.09216
0.080139
0.069686
0.069686
0.14016
0.069686
0.09216
0.12188
0.09216
0.09216
0.09216
0.14951
0.13001
0.14951
0.19773
0.19773
0.19773
0.13001
0.13001
0.14951
0.17194
0.19773
0.13001
0.14951
0.14951
0.19773
0.13001
0.14951
0.14951
0.14951
0.17194
0.13001
0.13001
0.17194
0.17194
0.14951
0.14951
0.13001
0.13001
0.14951
0.14951
0.14951
0.14951
0.13001
0.14951
0.13001
0.13001
0.13001
0.14951
0.13001
0.13001
0.13001
0.14951
0.14951
0.13001
0.17194
0.19773
0.14951
0.17194
0.13001
0.13001
0.17194
0.17194
0.13001
0.14951
0.17194
0.13001
0.2615
0.17194
0.17194
0.17194
0.19773
0.13001
0.17194
0.17194
0.17194
0.17194
0.17194
0.22739
0.2615
0.17194
0.13001
0.17194
0.14951
0.2615
0.2615
0.30072
0.14951
0.17194
0.22739
0.17194
0.13001
0.19773
0.13001
0.13001
0.17194
0.14951
0.14951
0.13001
0.14951
0.17194
0.13001
0.13001
0.13001
0.13001
0.22739
0.22739
0.30072
0.14951
0.17194
0.17194
0.17194
0.14951
0.19773
0.17194
0.19773
0.13001
0.17194
0.17194
0.17194
0.13001
0.1107
0.1107
0.096258
0.1273
0.19361
0.1464
0.1464
0.1273
0.096258
0.096258
0.1273
0.1107
0.083703
0.1464
0.083703
0.1107
0.1464
0.096258
0.083703
0.096258
0.083703
0.1107
0.096258
0.096258
0.083703
0.1107
0.1107
0.096258
0.096258
0.1107
0.096258
0.1107
0.1107
0.16836
0.1107
0.1273
0.1273
0.1273
0.1107
0.19361
0.1273
0.083703
0.1464
0.19361
0.1464
0.16836
0.1107
0.096258
0.1273
0.19361
0.1107
0.19361
0.1273
0.1273
0.1107
0.1107
0.19361
0.1273
0.16836
0.16836
0.16836
0.1107
0.1107
0.083703
0.19361
0.1107
0.1273
0.22265
0.16836
0.16836
0.1464
0.1464
0.1107
0.096258
0.1464
0.1273
0.1273
0.083703
0.096258
0.1464
0.1273
0.096258
0.1273
0.16836
0.1273
0.083703
0.1107
0.16836
0.1464
0.1107
0.096258
0.096258
0.1107
0.083703
0.16836
0.16836
0.096258
0.1464
0.1464
0.16836
0.096258
0.1273
0.1273
0.1464
0.19361
0.1464
0.1273
0.1273
0.1273
0.1107
0.1273
0.1273
0.1107
0.083703
0.096258
0.1273
0.1107
0.1273
0.1107
0.1107
0.16836
0.1273
0.16836
0.1107
0.1464
0.19361
0.11993
0.11993
0.1586
0.1586
0.11993
0.11993
0.11993
0.11993
0.1586
0.1586
0.24122
0.18239
0.13792
0.13792
0.13792
0.13792
0.11993
0.11993
0.11993
0.11993
0.11993
0.11993
0.11993
0.11993
0.11993
0.11993
0.1586
0.11993
0.11993
0.11993
0.11993
0.11993
0.11993
0.11993
0.13792
0.11993
0.2774
0.11993
0.11993
0.11993
0.11993
0.11993
0.11993
0.11993
0.11993
0.11993
0.11993
0.13792
0.11993
0.11993
0.11993
0.1586
0.11993
0.13792
0.1586
0.13792
0.13792
0.13792
0.11993
0.11993
0.11993
0.13792
0.13792
0.11993
0.11993
0.13792
0.1586
0.11993
0.11993
0.11993
0.11993
0.11993
0.11993
0.13792
0.13792
0.11993
0.11993
0.11993
0.11993
0.11993
0.11993
0.11993
0.11993
0.11993
0.11993
0.13792
0.11993
0.11993
0.1586
0.11993
0.11993
0.1586
0.11993
0.11993
0.11993
0.11993
0.11993
0.11993
0.11993
0.11993
0.1586
0.19593
0.17037
0.17037
0.17037
0.19593
0.22532
0.19593
0.19593
0.14815
0.19593
0.29798
0.12883
0.17037
0.12883
0.17037
0.17037
0.25911
0.22532
0.22532
0.34268
0.19593
0.17037
0.29798
0.25911
0.17037
0.22532
0.19593
0.34268
0.17037
0.17037
0.25911
0.19593
0.14815
0.17037
0.17037
0.12883
0.17037
0.12883
0.14815
0.14815
0.19593
0.12883
0.14815
0.14815
0.11202
0.22532
0.14815
0.14815
0.11202
0.19593
0.14815
0.14815
0.19593
0.12883
0.14815
0.097411
0.19593
0.12883
0.17037
0.14815
0.17037
0.12883
0.11202
0.25911
0.22532
0.22532
0.12883
0.17037
0.25911
0.17037
0.17037
0.12883
0.12883
0.17037
0.19593
0.19593
0.12883
0.12883
0.17037
0.12883
0.11202
0.11202
0.11202
0.14815
0.17037
0.12883
0.12883
0.12883
0.12883
0.17037
0.29798
0.19593
0.12883
0.17037
0.17037
0.19593
0.25911
0.19593
0.39408
0.29798
0.34268
0.29798
0.19593
0.22532
0.17037
0.25911
0.22532
0.14815
0.14815
0.17037
0.19593
0.25911
0.29798
0.22532
0.17037
0.17037
0.14815
0.19593
0.17037
0.14815
0.19593
0.14815
0.19593
0.19593
0.17037
0.17037
0.19593
0.17037
0.11297
0.12991
0.11297
0.19758
0.1494
0.1494
0.12991
0.1494
0.17181
0.2613
0.22722
0.17181
0.1494
0.12991
0.1494
0.12991
0.11297
0.17181
0.17181
0.12991
0.1494
0.22722
0.1494
0.22722
0.1494
0.1494
0.12991
0.17181
0.12991
0.1494
0.1494
0.17181
0.22722
0.19758
0.12991
0.1494
0.1494
0.1494
0.098233
0.19758
0.11297
0.11297
0.17181
0.11297
0.17181
0.17181
0.1494
0.098233
0.098233
0.098233
0.1494
0.12991
0.11297
0.11297
0.12991
0.12991
0.11297
0.12991
0.11297
0.11297
0.1494
0.1494
0.098233
0.1494
0.11297
0.11297
0.11297
0.11297
0.098233
0.12991
0.11297
0.1494
0.12991
0.11297
0.1494
0.1494
0.098233
0.1494
0.098233
0.12991
0.12991
0.098233
0.11297
0.12991
0.17181
0.11297
0.12991
0.11297
0.098233
0.19758
0.11297
0.11297
0.19758
0.11297
0.22722
0.1494
0.17181
0.12991
0.12991
0.12991
0.1494
0.1494
0.1494
0.1494
0.19758
0.12991
0.11297
0.1494
0.098233
0.12991
0.11297
0.11297
0.11297
0.12991
0.17181
0.11297
0.12991
0.12991
0.2613
0.11297
0.1494
0.1828
0.1828
0.1828
0.24175
0.1828
0.15896
0.21022
0.15896
0.15896
0.21022
0.15896
0.15896
0.15896
0.1828
0.15896
0.15896
0.15896
0.15896
0.15896
0.15896
0.15896
0.1828
0.15896
0.31972
0.21022
0.1828
0.15896
0.15896
0.15896
0.1828
0.15896
0.1828
0.15896
0.21022
0.15896
0.21022
0.1828
0.15896