# vtk DataFile Version 3.0
vtk output
ASCII
DATASET POLYDATA
POINTS 74185 float
-30.001 -162.1 -148.15
-29.999 -161.7 -148.85
-30.193 -161.32 -149.61
-30.342 -161.08 -150.38
-30.351 -160.95 -150.92
-30.317 -160.76 -151.73
-30.31 -160.74 -151.78
-30.215 -160.44 -152.65
-30.126 -160.14 -153.64
-30.124 -160.13 -153.69
-30.102 -160.06 -153.93
-30.138 -159.99 -154.18
-30.144 -159.98 -154.23
-30.196 -159.95 -154.63
-30.3 -159.75 -155.9
-30.317 -159.74 -156.48
-30.626 -159.57 -157.85
-30.736 -159.51 -158.16
-31.184 -159.43 -159.93
-31.172 -159.42 -160.09
-31.164 -159.41 -160.28
-31.19 -159.36 -160.54
-31.274 -159.24 -161.31
-31.333 -159.23 -161.66
-31.666 -159.09 -162.72
-31.775 -158.98 -163.1
-31.876 -158.9 -163.34
-31.876 -158.9 -163.34
-32.021 -158.81 -163.69
-32.062 -158.78 -163.83
-32.132 -158.7 -164.07
-32.253 -158.56 -164.47
-32.376 -158.33 -165.62
-32.313 -158.15 -166.58
-32.456 -157.83 -167.57
-32.476 -157.79 -167.69
-32.622 -157.49 -168.54
-32.638 -157.45 -168.64
-32.655 -157.43 -168.71
-32.705 -157.34 -168.89
-32.759 -157.32 -168.95
-32.883 -157.13 -169.63
-33.11 -156.75 -171.12
-33.182 -156.64 -171.58
-33.192 -156.63 -171.61
-33.302 -156.68 -172.03
-33.336 -156.69 -172.29
-33.461 -156.66 -173.42
-33.468 -156.65 -173.46
-33.738 -156.61 -175.25
-33.825 -156.6 -175.83
-33.822 -156.53 -176.42
-33.829 -156.52 -176.44
-34.113 -156.18 -177.22
-34.196 -156.06 -177.46
-34.283 -155.89 -177.76
-34.327 -155.76 -177.91
-34.629 -155.02 -178.79
-34.786 -154.66 -179.45
-34.99 -154.14 -180.39
-34.967 -154.08 -180.56
-34.898 -153.86 -181.28
-34.853 -153.76 -181.53
-34.853 -153.76 -181.53
-34.905 -153.5 -182.47
-34.886 -153.3 -183.1
-34.978 -153.08 -183.88
-34.946 -152.74 -185.24
-34.981 -152.59 -185.87
-35.023 -152.5 -186.39
-35.035 -152.48 -186.51
-35.047 -152.43 -186.66
-35.048 -152.42 -186.7
-35.24 -151.99 -187.92
-35.28 -151.65 -188.79
-35.268 -151.62 -189.09
-35.27 -151.61 -189.11
-35.282 -151.61 -189.19
-35.285 -151.61 -189.22
-35.302 -151.59 -189.4
-35.305 -151.59 -189.44
-35.358 -151.58 -189.68
-35.401 -151.56 -189.99
-35.455 -151.44 -191.06
-35.465 -151.4 -191.45
-35.41 -151.25 -192.4
-35.358 -151.17 -192.95
-35.348 -151.16 -193.45
-35.343 -151.15 -193.71
-35.343 -151.15 -193.71
-35.348 -151.15 -193.95
-35.346 -151.16 -194.49
-35.343 -151.16 -194.9
-35.368 -151.21 -195.68
-35.376 -151.23 -195.84
-35.377 -151.27 -196.07
-35.38 -151.26 -196.1
-35.393 -151.25 -196.2
-35.471 -151.18 -196.59
-35.476 -151.18 -196.61
-35.545 -151.14 -196.91
-35.69 -151.07 -197.48
-35.82 -151 -197.76
-35.869 -150.97 -197.85
-35.869 -150.97 -197.85
-36.005 -150.9 -198.09
-36.055 -150.88 -198.17
-36.056 -150.88 -198.17
-36.182 -150.85 -198.35
-36.368 -150.82 -198.62
-36.369 -150.82 -198.63
-36.537 -150.79 -198.88
-36.662 -150.76 -199.03
-36.865 -150.7 -199.25
-37.025 -150.66 -199.42
-37.222 -150.62 -199.63
-37.223 -150.62 -199.63
-37.244 -150.61 -199.65
-37.244 -150.61 -199.65
-37.285 -150.6 -199.7
-37.428 -150.55 -199.91
-37.508 -150.52 -200
-37.829 -150.37 -200.25
-37.83 -150.37 -200.25
-37.85 -150.36 -200.27
-37.851 -150.36 -200.27
-37.976 -150.3 -200.37
-38.389 -150.15 -200.7
-38.497 -150.12 -200.8
-38.52 -150.11 -200.81
-38.521 -150.11 -200.81
-38.654 -150.05 -200.93
-38.654 -150.05 -200.93
-38.721 -150.02 -200.99
-38.722 -150.02 -200.99
-38.958 -149.89 -201.21
-38.979 -149.88 -201.23
-38.979 -149.88 -201.23
-39.054 -149.84 -201.3
-39.373 -149.74 -201.65
-40.036 -149.61 -202.39
-40.274 -149.57 -202.68
-40.628 -149.53 -203.15
-41.237 -149.55 -204.03
-41.399 -149.58 -204.27
-42.57 -149.95 -206.15
-42.688 -149.9 -206.24
-43.06 -149.95 -206.64
-43.254 -149.97 -206.89
-43.68 -150 -207.46
-43.693 -150 -207.47
-43.739 -150 -207.54
-44.089 -149.98 -208.02
-44.57 -150.03 -208.64
-44.609 -150.04 -208.68
-45.001 -150.03 -209.2
-45.262 -150.05 -209.53
-45.476 -150.07 -209.71
-45.912 -150.06 -210.14
-46.154 -150.05 -210.38
-46.193 -150.05 -210.42
-46.237 -150.04 -210.45
-46.337 -150.03 -210.54
-46.728 -149.98 -210.88
-46.962 -149.95 -211.06
-47.012 -149.95 -211.1
-47.053 -149.94 -211.13
-47.069 -149.94 -211.14
-47.23 -149.93 -211.29
-47.361 -149.92 -211.4
-47.429 -149.91 -211.46
-47.43 -149.91 -211.46
-47.571 -149.9 -211.58
-47.704 -149.9 -211.7
-47.832 -149.89 -211.83
-48.097 -149.88 -212.02
-48.13 -149.88 -212.04
-48.13 -149.88 -212.04
-48.676 -149.86 -212.41
-48.746 -149.86 -212.46
-49.052 -149.85 -212.67
-49.097 -149.85 -212.71
-49.602 -149.89 -213.11
-49.614 -149.9 -213.12
-49.614 -149.9 -213.12
-49.929 -149.85 -213.44
-50.003 -149.84 -213.52
-50.004 -149.84 -213.52
-50.086 -149.83 -213.6
-50.25 -149.83 -213.73
-50.251 -149.83 -213.73
-50.627 -149.81 -214.08
-50.781 -149.8 -214.23
-50.783 -149.8 -214.23
-50.796 -149.8 -214.25
-50.838 -149.81 -214.29
-50.987 -149.81 -214.46
-51.146 -149.8 -214.7
-51.53 -149.78 -215.26
-51.645 -149.77 -215.42
-51.73 -149.77 -215.49
-52.372 -149.74 -216.07
-52.93 -149.72 -216.52
-52.999 -149.73 -216.58
-53.122 -149.75 -216.69
-53.591 -149.85 -217.08
-53.771 -149.88 -217.25
-54.209 -149.96 -217.65
-54.447 -149.98 -217.78
-54.631 -149.99 -217.89
-54.645 -149.99 -217.9
-54.677 -150 -217.92
-54.752 -150.01 -217.98
-54.752 -150.01 -217.98
-55.074 -150.07 -218.23
-55.083 -150.07 -218.24
-55.469 -150.21 -218.7
-55.486 -150.21 -218.73
-55.585 -150.25 -218.88
-55.785 -150.29 -219.16
-56.025 -150.43 -219.49
-56.219 -150.5 -219.93
-56.506 -150.65 -220.4
-57.016 -150.67 -220.97
-57.107 -150.68 -221.08
-57.697 -150.72 -221.73
-57.798 -150.74 -221.89
-58.043 -150.8 -222.27
-58.359 -151.01 -222.86
-58.409 -151.05 -222.95
-58.45 -151.09 -223.04
-58.5 -151.15 -223.13
-58.598 -151.25 -223.32
-58.752 -151.34 -223.59
-58.877 -151.42 -223.8
-58.953 -151.47 -223.93
-59.05 -151.5 -224.12
-59.155 -151.52 -224.38
-59.219 -151.55 -224.54
-59.244 -151.56 -224.6
-59.293 -151.57 -224.73
-59.381 -151.59 -224.96
-59.394 -151.59 -225
-59.474 -151.59 -225.22
-59.545 -151.56 -225.52
-59.607 -151.54 -225.8
-59.611 -151.53 -225.82
-59.667 -151.48 -226.11
-59.679 -151.47 -226.16
-59.711 -151.44 -226.3
-59.712 -151.44 -226.3
-59.72 -151.43 -226.36
-59.748 -151.38 -226.61
-59.791 -151.35 -226.79
-59.819 -151.34 -226.9
-59.82 -151.34 -226.9
-59.87 -151.28 -227.21
-59.872 -151.28 -227.23
-59.903 -151.23 -227.39
-59.948 -151.19 -227.53
-59.948 -151.19 -227.53
-59.982 -151.16 -227.63
-59.982 -151.16 -227.63
-60.124 -151.03 -228.03
-60.124 -151.03 -228.03
-60.178 -151 -228.14
-60.244 -150.96 -228.31
-60.457 -150.8 -228.9
-60.483 -150.78 -228.97
-60.707 -150.64 -229.46
-60.847 -150.52 -229.93
-60.902 -150.5 -230.01
-60.967 -150.5 -230.24
-60.981 -150.5 -230.3
-61.017 -150.5 -230.45
-61.035 -150.51 -230.54
-61.078 -150.51 -230.73
-61.094 -150.5 -230.78
-61.23 -150.49 -231.19
-61.328 -150.47 -231.47
-61.414 -150.47 -231.7
-61.628 -150.43 -232.3
-61.696 -150.42 -232.45
-61.885 -150.37 -232.97
-62.139 -150.34 -233.31
-62.166 -150.34 -233.37
-62.272 -150.37 -233.54
-62.524 -150.44 -233.96
-62.77 -150.5 -234.44
-62.865 -150.51 -234.61
-63.231 -150.62 -235.07
-63.424 -150.68 -235.42
-63.509 -150.69 -235.51
-63.511 -150.69 -235.51
-63.875 -150.78 -235.92
-64.025 -150.82 -236.1
-64.029 -150.82 -236.11
-64.143 -150.85 -236.22
-64.362 -150.94 -236.47
-64.532 -151 -236.65
-64.576 -151.02 -236.73
-64.609 -151.04 -236.79
-64.941 -150.85 -237.29
-65.168 -150.71 -237.71
-65.211 -150.68 -237.8
-65.235 -150.67 -237.85
-65.304 -150.61 -238.02
-65.33 -150.57 -238.06
-65.482 -150.27 -238.31
-65.484 -150.26 -238.32
-65.555 -150.12 -238.42
-65.711 -149.5 -238.63
-65.798 -149.26 -238.71
-65.85 -149.14 -238.72
-66.003 -148.84 -238.77
-66.093 -148.7 -238.8
-66.16 -148.5 -238.88
-66.452 -148 -238.94
-66.509 -147.91 -238.96
-66.688 -147.59 -239.01
-66.744 -147.45 -239.04
-66.801 -147.35 -239.04
-66.856 -147.21 -239.04
-67.078 -146.68 -239.13
-67.196 -146.37 -239.2
-67.305 -145.99 -239.28
-67.392 -145.74 -239.33
-67.436 -145.3 -239.44
-67.595 -144.83 -239.52
-67.607 -144.78 -239.52
-67.691 -144.6 -239.55
-67.694 -144.59 -239.56
-67.898 -144.23 -239.74
-67.998 -144.16 -239.77
-68.331 -143.85 -239.87
-68.371 -143.81 -239.89
-68.792 -143.37 -239.97
-68.937 -143.23 -240.05
-69.079 -143.11 -240.09
-69.297 -142.87 -240.13
-69.301 -142.86 -240.13
-69.603 -142.49 -240.14
-69.797 -142.26 -240.08
-69.979 -142.04 -240.07
-69.991 -142.02 -240.07
-70.014 -141.98 -240.06
-70.069 -141.88 -240.04
-70.069 -141.88 -240.04
-70.16 -141.74 -240.03
-70.264 -141.55 -240.02
-70.327 -141.46 -240.03
-70.489 -141.27 -240.05
-70.525 -141.21 -240.06
-70.525 -141.21 -240.06
-70.566 -141.16 -240.06
-70.567 -141.15 -240.06
-70.585 -141.13 -240.06
-70.722 -140.98 -240.06
-70.755 -140.95 -240.06
-70.769 -140.94 -240.06
-70.777 -140.93 -240.06
-71.122 -140.57 -240.01
-71.135 -140.55 -240.01
-71.145 -140.54 -240.01
-71.381 -140.29 -239.99
-71.483 -140.14 -239.99
-71.637 -139.97 -239.99
-71.833 -139.76 -239.99
-71.842 -139.75 -239.98
-71.842 -139.75 -239.98
-71.948 -139.63 -239.97
-71.956 -139.62 -239.97
-72.041 -139.53 -239.95
-72.322 -139.19 -239.96
-72.344 -139.12 -239.97
-72.412 -138.97 -240
-72.412 -138.97 -240
-72.459 -138.88 -239.97
-72.572 -138.71 -239.91
-72.628 -138.64 -239.9
-72.829 -138.42 -239.86
-73.063 -138.21 -239.83
-73.089 -138.19 -239.83
-73.276 -137.99 -239.83
-73.484 -137.67 -239.84
-73.563 -137.57 -239.85
-73.608 -137.48 -239.85
-73.799 -137.23 -239.84
-73.95 -136.98 -239.83
-74.003 -136.9 -239.84
-74.152 -136.75 -239.83
-74.17 -136.73 -239.82
-74.186 -136.71 -239.82
-74.325 -136.57 -239.8
-74.382 -136.53 -239.8
-74.485 -136.42 -239.78
-74.643 -136.29 -239.76
-74.675 -136.25 -239.75
-74.839 -136.1 -239.71
-74.844 -136.1 -239.7
-74.988 -135.97 -239.67
-75.014 -135.95 -239.66
-75.113 -135.87 -239.63
-75.171 -135.82 -239.61
-75.293 -135.7 -239.6
-75.341 -135.65 -239.58
-75.503 -135.52 -239.55
-75.523 -135.51 -239.55
-75.752 -135.36 -239.5
-75.893 -135.28 -239.48
-75.936 -135.25 -239.48
-76.076 -135.17 -239.46
-76.314 -135.1 -239.43
-76.447 -135.05 -239.38
-76.697 -135 -239.35
-76.741 -135 -239.35
-76.769 -135 -239.35
-76.847 -135.01 -239.34
-76.973 -135.02 -239.31
-77.035 -135.02 -239.3
[...]
POINT_DATA 74185
SCALARS radius double 
LOOKUP_TABLE default 
7.5063
7.6347
7.6774
7.7557
7.7669
7.7935
7.7927
7.7669
7.8231
7.8283
7.8497
7.8323
7.8254
7.7812
7.7156
7.7292
7.7751
7.798
8.0428
8.0327
8.0134
7.969
7.87
7.8052
7.6558
7.5876
7.5491
7.5489
7.4915
7.4646
7.4152
7.3376
7.1613
7.1086
7.1169
7.1219
7.2389
7.2553
7.2619
7.2545
7.2407
7.1142
7.0463
7.0809
7.083
7.0039
6.9637
6.8135
6.8111
6.9029
7.0069
7.1256
7.1262
7.1175
7.119
7.1249
7.0993
7.0689
7.0105
7.0218
6.9865
6.8652
6.838
6.8379
6.7831
6.8143
6.8333
7.0893
7.2788
7.4461
7.488
7.5232
7.5327
7.8014
8.1137
8.1589
8.1592
8.1605
8.161
8.1612
8.1607
8.1492
8.1419
8.1174
8.134
8.1958
8.2323
8.2516
8.2663
8.2664
8.2769
8.3108
8.3475
8.4395
8.4631
8.4905
8.4867
8.4719
8.399
8.3943
8.3401
8.2513
8.1758
8.1486
8.1485
8.0776
8.0529
8.0525
7.9797
7.8694
7.869
7.7781
7.7097
7.6046
7.5282
7.4372
7.4368
7.4271
7.4268
7.4057
7.328
7.2812
7.084
7.0832
7.0715
7.0712
6.9994
6.7773
6.7247
6.7134
6.7129
6.6369
6.6366
6.598
6.5975
6.4611
6.4492
6.4491
6.4089
6.228
5.9165
5.8226
5.7408
5.6236
5.6238
6.0701
6.109
6.0376
6.0063
5.9774
5.977
5.9732
5.9603
5.9761
5.9795
5.9905
6.0081
5.988
5.9197
5.8944
5.8925
5.8867
5.8715
5.8234
5.812
5.8104
5.8082
5.8069
5.7955
5.7883
5.786
5.786
5.7787
5.7741
5.7717
5.7754
5.7763
5.7763
5.8145
5.8225
5.8593
5.8573
5.8456
5.8456
5.8456
5.7952
5.7859
5.7858
5.771
5.7364
5.7362
5.6757
5.6609
5.6608
5.6592
5.6504
5.6092
5.5605
5.4995
5.4928
5.4863
5.4971
5.5766
5.5812
5.5828
5.6148
5.6427
5.7384
5.7654
5.7825
5.7842
5.7826
5.7746
5.7746
5.7494
5.7477
5.6651
5.6612
5.6433
5.5881
5.5018
5.4322
5.369
5.1795
5.1581
5.0577
5.0304
4.9788
4.8525
4.839
4.822
4.8002
4.7625
4.6911
4.635
4.6072
4.5479
4.4764
4.4343
4.4169
4.3842
4.3275
4.3176
4.268
4.1823
4.1159
4.1092
4.0181
4
3.9574
3.9556
3.9302
3.8285
3.7521
3.7078
3.7069
3.6054
3.6001
3.536
3.4775
3.4772
3.4346
3.4343
3.2851
3.2845
3.2522
3.2057
3.1141
3.1098
3.1147
3.1901
3.2032
3.1863
3.1824
3.169
3.1575
3.1357
3.1208
2.9851
2.9044
2.8508
2.7693
2.7629
2.7651
2.7841
2.7905
2.775
2.7811
2.8481
2.8803
3.0077
3.1224
3.1448
3.1452
3.2654
3.3275
3.3288
3.3745
3.4741
3.5595
3.5878
3.6075
3.5157
3.5083
3.5062
3.5071
3.5073
3.4805
3.3115
3.3093
3.2284
2.8437
2.6938
2.6154
2.4163
2.3146
2.2139
1.9338
1.8975
1.7763
1.7375
1.7115
1.6816
1.6353
1.6557
1.737
1.8126
1.9548
2.155
2.1756
2.2578
2.2582
2.2106
2.1598
1.9647
1.9379
1.7143
1.6585
1.607
1.5329
1.5318
1.4534
1.4281
1.4084
1.4053
1.396
1.3754
1.3752
1.3522
1.3147
1.2968
1.2687
1.2616
1.2616
1.2525
1.2523
1.2492
1.2281
1.2247
1.2212
1.2195
1.2024
1.2024
1.2027
1.2118
1.2313
1.2492
1.271
1.2711
1.2711
1.2623
1.2617
1.2639
1.2732
1.2641
1.2443
1.2443
1.2332
1.2158
1.2127
1.2085
1.1757
1.1724
1.1506
1.1683
1.1904
1.2006
1.2319
1.2927
1.3045
1.3125
1.3119
1.3106
1.3022
1.2984
1.283
1.2656
1.2616
1.2385
1.2374
1.196
1.189
1.1621
1.1451
1.1215
1.1099
1.0748
1.0722
1.0271
1.0032
0.99792
0.97717
0.9321
0.91121
0.87233
0.86494
0.86052
0.846
0.82087
0.80537
0.78055
0.77138
0.76809
0.74644
0.73693
0.73669
0.72998
0.71636
1.2389
1.2388
1.2224
1.2206
1.2154
1.2092
1.2077
1.1842
1.1519
1.1469
1.1516
1.173
1.1803
1.1952
1.2161
1.2305
1.2867
1.29
1.3284
1.3356
1.3379
1.3379
1.3236
1.3221
1.2877
1.2875
1.2651
1.2569
1.2206
1.2094
1.1877
1.1503
1.1168
1.114
1.1064
1.1042
1.103
1.0828
1.082
1.0784
1.0914
1.0888
1.0726
1.0723
1.067
1.0621
1.0539
1.0108
1.0073
0.97159
0.96732
0.96726
0.95753
0.92345
0.93679
0.94272
0.94277
0.9464
0.94521
0.97619
0.97878
0.97801
0.98541
0.99349
0.9781
0.99112
0.97831
0.96886
0.96072
0.93982
0.90416
0.88564
0.87742
0.84962
0.82874
0.82857
0.80199
0.80166
0.78105
0.76399
0.73227
0.73211
0.72705
0.73299
0.73284
0.77475
0.79187
0.82495
0.83485
0.83991
0.84468
0.84315
0.84315
0.85175
0.893
0.90906
0.89823
0.89819
0.87729
0.87729
0.87495
0.8741
0.87291
0.85968
0.85872
0.85188
0.84232
0.83683
0.82132
0.815
0.80577
0.77639
0.77417
0.77198
0.76975
0.76834
0.75904
0.72518
0.71967
0.70582
0.70353
0.68901
0.68369
0.69423
0.69438
0.69438
0.70174
0.71709
0.71929
0.72344
0.71983
0.70813
0.6529
0.65177
0.62453
0.59398
0.58016
0.58011
0.61606
0.62272
0.62219
0.62264
0.63558
0.63686
0.64411
0.68764
0.68767
0.68529
0.6708
0.6705
0.66235
0.66232
0.65881
0.63491
0.62173
0.62201
0.59974
0.59235
0.57714
0.55872
0.55257
0.54623
0.54491
0.5415
0.54149
0.5154
0.51027
0.49507
0.49271
0.48042
0.47469
0.48283
0.48019
0.46642
0.46738
0.45899
0.44968
0.43883
0.447
0.45034
0.4496
0.43579
0.42106
0.41516
0.41005
0.40043
0.43595
0.43593
0.42405
0.4004
0.40107
0.38255
0.38307
0.38231
0.37386
0.36369
0.37776
0.3773
0.38138
0.37635
0.36604
0.36345
0.36545
0.36875
0.37525
0.36321
0.36598
0.35747
0.35548
0.3475
0.34919
0.36336
0.36577
0.39624
0.40294
0.43096
0.4309
0.69238
0.69376
0.69397
0.69639
0.69785
0.71059
0.7283
0.73837
0.74159
0.7407
0.73949
0.72055
0.6899
0.66887
0.6389
0.6131
0.61201
0.60255
0.5821
0.58224
0.57655
0.60008
0.5976
0.60745
0.61398
0.61496
0.61464
0.60224
0.59438
0.59589
0.62803
0.63309
0.65525
0.65561
0.64535
0.64417
0.64161
0.64937
0.67652
0.67546
0.68785
0.70769
0.71508
0.72928
0.73079
0.75333
0.75801
0.75137
0.74146
0.74092
0.76532
0.76606
0.77707
0.7812
0.78884
0.78954
0.79028
0.79076
0.78743
0.75943
0.75044
0.74364
0.7435
0.72985
0.72561
0.72626
0.72029
0.71886
0.71552
3.1773
3.1968
3.2965
3.3051
3.3065
3.3655
3.4375
3.4936
3.534
3.5046
3.4987
3.4546
3.4434
3.4796
3.5454
3.5775
3.5224
3.5023
3.3871
3.3491
3.3416
3.2654
3.2192
3.1932
3.1516
3.1505
3.0945
3.0938
3.0719
3.0187
2.9982
3.0026
3.0092
2.9945
2.9852
2.9851
2.9893
2.9995
2.9984
3.0004
3.0728
3.2132
3.2611
3.274
3.2732
3.3418
3.3853
3.4782
3.5703
3.5744
3.5743
3.5719
3.5678
3.5676
3.566
3.4599
3.3676
3.2217
3.1832
3.0799
3.0838
3.1026
3.1274
3.1359
3.1628
3.1643
3.1782
3.2262
3.2276
3.2292
3.2507
3.2712
3.2685
3.2961
3.3117
3.4306
3.4277
3.3627
3.3624
3.361
3.361
3.2961
3.2095
3.2092
3.1876
3.1359
3.1283
3.0815
3.0476
2.9547
2.9482
2.9473
2.8206
2.6947
2.6451
2.6449
2.3826
2.256
2.1728
2.1553
2.1407
2.1327
2.0703
2.0698
2.0398
2.0148
1.9898
1.9896
1.9196
1.9167
1.8877
1.8873
1.8172
1.816
1.8026
1.7902
1.7814
1.7739
1.7784
1.7867
1.7857
1.8056
1.8123
1.8119
1.8163
1.8326
1.8572
1.8685
1.926
1.9329
1.9795
1.9871
1.9834
1.9948
2.0245
2.0637
2.064
2.09
2.0903
2.0904
2.0876
2.0831
2.0741
2.0696
2.0658
2.0647
2.0646
2.0601
2.048
2.0172
2.0128
2.0073
2.0059
1.946
1.9439
1.91
1.898
1.8845
1.8666
1.797
1.7823
1.7822
1.7544
1.7517
1.648
1.6091
1.5239
1.3407
1.3399
1.1434
1.1174
1.1028
1.0358
0.95079
0.87407
0.85904
0.79929
0.79099
0.77854
0.76701
0.76424
0.76027
0.76097
0.76974
0.76964
0.77932
0.78565
0.79464
0.79734
0.80138
0.80501
0.80545
0.82354
0.82184
0.81344
0.81197
0.81256
0.81265
0.81369
0.81616
0.84874
0.85047
0.83095
0.83086
0.8131
0.81978
0.81348
0.82418
0.82364
0.8175
0.81779
0.81578
0.81471
0.80678
0.8059
0.77105
0.76008
0.75944
0.73825
0.73789
0.70584
0.66817
0.66198
0.65876
0.65873
0.64179
0.6415
0.60771
0.59594
0.48166
0.48129
0.45801
0.43864
0.44169
0.48013
0.48521
0.48892
0.49605
0.49758
0.50345
0.52045
0.5229
0.53219
0.58573
0.58905
0.62691
0.62982
0.62609
0.63174
0.62804
0.61024
0.60692
0.60592
0.59895
0.57759
0.57085
0.57079
0.56965
0.54991
0.54983
0.53577
0.51047
0.48805
0.47687
0.45241
0.45388
0.45412
0.4348
0.40316
0.40225
0.39744
0.39779
0.42074
0.43215
0.44628
0.46429
0.46827
0.46858
0.46787
0.46303
0.45113
0.44379
0.44212
0.42881
0.42001
0.41607
0.38403
0.37046
0.33802
0.33626
0.35752
0.35742
0.35742
0.36247
0.36276
0.36537
0.33875
0.33537
0.34779
0.34933
0.32744
0.33013
0.33015
0.32524
0.32572
0.32573
0.35525
0.3623
0.40102
0.42235
0.42886
0.43558
0.43584
0.43351
0.43349
0.40336
0.40062
0.34842
0.35022
0.34827
0.34764
0.35036
0.36523
0.36531
0.36206
0.35718
0.36237
0.36907
0.36834
0.36834
0.37143
0.36976
0.39999
0.42138
0.4326
0.4976
0.52991
0.53227
0.55619
0.55837
0.55346
0.51929
0.51901
0.4864
0.4416
0.42908
0.42654
0.3832
0.3748
0.37656
0.37599
0.34639
0.34016
0.37974
0.37997
0.37714
0.37712
0.42293
0.42857
0.43265
0.49208
0.49559
0.51771
0.52358
0.48841
0.4522
0.44143
0.40386
0.40089
0.39436
0.3831
0.37174
0.37598
0.37389
0.37531
0.37046
0.35884
0.36987
0.36816
0.38444
0.38516
0.36062
0.37889
0.37212
0.37209
0.37152
0.37842
0.36973
0.3472
0.32641
1.9861
1.9471
1.9403
1.9401
1.9298
1.9113
1.7356
1.6155
1.4646
1.4383
1.4337
1.3569
1.3458
1.2992
1.2598
1.2382
1.1963
1.1628
1.1631
1.1558
1.1551
1.1527
1.1555
1.192
1.1992
1.2958
1.3397
1.3502
1.3507
1.3507
1.3283
1.3209
1.3086
1.3057
1.3217
1.3611
1.384
1.384
1.384
1.3899
1.3982
1.402
1.411
1.439
1.4665
1.4707
1.4879
1.5474
1.5465
1.5422
1.5384
1.5215
1.4997
1.4975
1.4891
1.4871
1.4774
1.459
1.4576
1.4524
1.4373
1.438
1.4482
1.4811
1.485
1.4767
1.4813
1.4784
1.4896
1.5152
1.5172
1.5166
1.5075
1.5072
1.4732
1.3473
1.3269
1.3234
1.3221
1.3308
1.3355
1.3261
1.3132
1.3081
1.2662
1.2578
1.2461
1.1644
1.1282
1.1127
0.97219
0.96624
0.93021
0.78891
0.756
0.7397
0.73944
0.63171
0.59125
0.56189
0.56714
0.63752
0.65092
0.78428
0.82598
0.86597
0.87343
0.87561
0.88945
0.8935
0.89545
0.89108
0.91409
0.91478
0.93476
0.9623
0.96364
0.96572
0.97236
0.95799
0.95511
0.9548
0.95545
0.95341
0.94213
0.93924
0.96063
0.94355
0.94353
0.92898
0.92693
0.90946
0.90852
0.90292
0.88159
0.86826
0.79986
0.79931
0.76112
0.75584
0.75612
0.75189
0.71957
0.70839
0.68038
0.67819
0.66493
0.68653
0.7124
0.72569
0.72834
0.72604
0.72106
0.7201
0.67553
0.66221
0.67047
0.67341
0.70704
0.70745
0.71329
0.71419
0.70783
0.70807
0.7553
0.75741
0.76345
0.76409
0.76194
0.7436
0.73657
0.73322
0.72831
0.72749
0.70539
0.70584
0.71684
0.72547
0.75358
0.80275
0.80804
0.82308
0.82243
0.82242
0.81358
0.80131
0.78764
0.78681
0.78266
0.78138
0.80238
0.84413
0.86951
0.97258
0.99045
0.99387
1.0346
1.0214
1.017
1.0069
0.96997
0.96906
0.94594
0.8818
0.87995
0.87301
0.87287
0.85216
0.85177
0.78975
0.78899
0.77678
0.76119
0.75261
0.71337
0.66442
0.65341
0.64451
0.63288
0.61468
0.61453
0.58514
0.58429
0.57583
0.55249
0.53881
0.53052
0.49794
0.48915
0.49294
0.49148
1.4192
1.4308
1.4364
1.4915
1.5155
1.5203
1.5401
1.5411
1.5371
1.5247
1.5025
1.4967
1.4707
1.4513
1.4494
1.4478
1.4472
1.4451
1.4275
1.4186
1.4188
1.4242
1.4317
1.4446
1.4551
1.4619
1.4752
1.4663
1.5006
1.5022
1.5023
1.5162
1.5098
1.5032
1.4619
1.428
1.3901
1.342
1.3267
1.2988
1.297
1.272
1.2673
1.2679
1.2746
1.2895
1.2799
1.2699
1.2213
1.1395
1.0884
1.0712
0.99152
0.97814
0.96788
0.95824
0.95595
0.95337
0.95277
0.95198
0.96347
0.96738
0.99463
1.0099
1.0216
1.0398
1.0696
1.0844
1.0876
1.0875
1.1265
1.1269
1.1322
1.1597
1.1813
1.1971
1.2088
1.2233
1.2248
1.237
1.2437
1.2617
1.262
1.2779
1.2948
1.2965
1.3013
1.2962
1.2348
1.2182
1.2105
1.2061
1.2128
1.2445
1.2973
1.3112
1.3177
1.296
1.2672
1.2496
1.2492
1.2482
1.2499
1.2499
1.2486
1.2768
1.2841
1.3069
1.3527
1.3541
1.3569
1.3524
1.3161
1.2697
1.2657
1.2599
1.1924
1.131
1.1275
1.047
1.0433
1.0433
1.0118
1.0114
0.99628
0.94882
0.93012
0.88206
0.86491
0.85348
0.8327
0.77311
0.76172
0.72653
0.72302
0.69735
0.69416
0.6897
0.68743
0.6834
0.68726
0.69069
0.68805
0.7151
0.72428
0.74905
0.75038
0.75692
0.75486
0.73332
2.9813
2.9964
2.9934
2.9945
3.1413
3.1444
3.1452
3.1655
3.1656
3.1702
3.2158
3.2159
3.3054
3.2052
3.151
3.0186
3.0175
2.833
2.8002
2.7987
2.5179
2.4135
2.2838
2.2097
2.1459
1.8023
1.6061
1.6052
1.5738
1.5067
1.4238
1.4175
1.4052
1.3686
1.3674
1.3542
1.3371
1.3127
1.28
1.2286
1.2213
1.2119
1.2098
1.204
1.2022
1.2334
1.2348
1.3263
1.3306
1.3307
1.3639
1.4138
1.4486
1.453
1.4531
1.4867
1.5109
1.5453
1.55
1.5501
1.5847
1.5982
1.6136
1.6986
1.7261
1.7437
1.7445
1.7624
1.7774
1.7869
1.7909
1.7928
1.7918
1.7906
1.7583
1.7547
1.7431
1.6834
1.6766
1.6491
1.6445
1.6295
1.6294
1.6104
1.5975
1.5608
1.5564
1.5538
1.5511
1.5335
1.5264
1.5344
1.5394
1.5392
1.5178
1.4901
1.4725
1.4721
1.46
1.4646
1.4607
1.4607
1.461
1.4667
1.469
1.4858
1.4888
1.4874
1.4572
1.438
1.4312
1.3875
1.3635
1.3097
1.1809
1.1083
1.0595
1.0581
0.89977
0.85964
0.7986
0.79174
0.66268
0.65945
0.62396
0.6189
0.61636
0.61624
0.60166
0.57935
0.54372
0.54182
0.53812
0.54363
0.54365
0.58312
0.59009
0.64257
0.65449
0.69198
0.71619
0.7245
0.73366
0.74112
0.7413
0.74141
0.74141
0.7428
0.74299
0.74699
0.74805
0.77284
0.78354
0.78473
0.78668
0.77805
0.77885
0.7778
0.78515
0.78336
0.79677
0.79875
0.80026
0.79805
0.79804
0.79109
0.79077
0.78541
0.78487
0.75305
0.73238
0.71361
0.65327
0.62757
0.59564
0.59211
0.57653
0.57422
0.54728
0.53853
0.52044
0.51539
0.50855
0.47296
0.46238
0.45632
0.45962
0.47994
0.52832
0.55188
0.71515
0.72439
0.74798
0.75297
0.77034
0.77812
0.77829
0.77986
0.77641
0.75182
0.74508
0.71505
0.66489
0.65826
0.58274
0.58244
0.54328
0.54328
3.133
3.1321
3.0943
3.0637
3.0346
3.0284
2.9491
2.6108
2.5601
2.5599
2.3854
2.3826
2.1254
2.0663
2.0419
1.8968
1.892
1.8508
1.8504
1.802
1.8014
1.6947
1.6939
1.6909
1.6908
1.6477
1.6413
1.6342
1.6332
1.6116
1.6353
1.6598
1.6617
1.689
1.7001
1.7845
1.8331
1.8836
1.9038
1.9112
1.9699
1.9913
1.9936
1.994
2.0036
2.0027
1.9994
1.9967
1.992
2.009
2.0561
2.1053
2.1363
2.1439
2.1664
2.1938
2.2025
2.2033
2.1994
2.195
2.195
2.1688
2.1523
2.1548
2.1541
2.1551
2.156
2.1511
2.165
2.1939
2.1857
2.1855
2.1768
2.1562
2.153
2.1065
2.1061
2.0738
2.0609
2.0493
2.043
2.029
2.0036
2.0013
1.9503
1.9382
1.9368
1.9044
1.9038
1.8308
1.8116
1.7849
1.6931
1.6421
1.6221
1.6212
1.6143
1.5972
1.6142
1.6279
1.6744
1.6846
1.7128
1.7132
1.726
1.7197
1.7201
1.7149
1.713
1.7152
1.7164
1.7245
1.7319
1.7363
1.7427
1.7452
1.7651
1.7739
1.7842
1.8037
1.8075
1.8096
1.8139
1.8164
1.8229
1.8242
1.8346
1.8573
1.8499
1.8429
1.824
1.7275
1.7133
1.6469
1.6149
1.5968
1.5854
1.5493
1.5376
1.5145
1.4897
1.4895
1.4241
1.2528
1.2314
1.2008
1.1429
1.0563
0.93262
0.93212
0.83848
0.78648
0.78232
0.78225
0.73951
0.69328
0.70304
0.69958
0.70895
0.73664
0.75381
0.82111
0.82256
0.82773
0.82896
0.84999
0.8505
0.85059
0.85215
0.85391
0.84166
0.8409
0.84089
0.84221
0.85078
0.85111
0.85036
0.84731
0.8436
0.84078
0.82848
0.82681
0.79436
0.79383
0.79332
0.78406
0.78315
0.76604
0.7609
0.7615
0.76167
0.76154
0.75119
0.74644
0.70689
0.69847
0.67227
0.70235
0.69794
0.73986
0.7878
0.79247
0.79529
0.82085
0.84006
0.83898
0.83569
0.83568
0.83309
0.83306
0.85534
0.85604
0.89638
0.89779
0.90001
0.92543
0.92549
0.92638
0.93229
0.93306
0.93042
0.92863
0.93144
0.91965
0.91778
0.91488
0.91533
0.91591
0.91478
0.91265
0.90853
0.89898
0.84077
0.83754
0.79096
0.77759
0.77424
0.71789
0.7149
0.71513
0.71513
0.71439
0.69788
0.6934
0.69035
0.68308
0.67903
0.67587
0.64787
0.63127
0.60924
0.60909
0.60803
0.58447
0.58147
0.57322
0.53602
0.53616
0.52976
0.52444
0.50504
0.5089
0.5206
0.5185
3.2813
3.3665
3.3837
3.5912
3.6021
3.5683
3.5179
3.3624
3.3113
3.2907
3.1808
3.174
3.1304
3.1207
3.014
2.9989
2.9536
2.9472
2.9459
2.9652
2.9662
2.8864
2.8674
2.8586
2.8532
2.8179
2.8056
2.7776
2.7498
2.742
2.7158
2.6974
2.678
2.635
2.6278
2.6175
2.6006
2.5316
2.3751
2.3531
2.2474
2.2342
2.1781
2.166
2.1559
2.1407
2.0822
2.0538
1.9328
1.8805
1.8359
1.7764
1.7744
1.7085
1.6873
1.6845
1.6293
1.6327
1.6329
1.6292
1.6291
1.6574
1.6653
1.6722
1.6877
1.6989
1.7152
1.7147
1.6896
1.6813
1.6474
1.6475
1.6475
1.6552
1.6559
1.7002
1.7055
1.7346
1.7604
1.7604
1.7657
1.7505
1.7388
1.7329
1.7215
1.6964
1.6914
1.6696
1.6695
1.6403
1.639
1.5501
1.5497
1.5765
1.6289
1.6434
1.6436
1.6764
1.6751
1.6751
1.6591
1.6311
1.6316
1.6161
1.6135
1.6135
1.612
1.6118
1.6102
1.5964
1.592
1.5595
1.5591
1.5382
1.5047
1.3909
1.3408
1.3011
1.3007
1.2813
1.2811
1.2325
1.1852
1.0994
1.0899
1.0877
1.0264
1.0257
1.0208
1.0156
1.0079
1.0074
0.99521
1.0054
1.0149
1.021
1.021
1.0188
1.0211
1.0205
1.0151
1.0292
1.0397
1.0401
1.0737
1.0742
1.0769
1.0781
1.0774
1.0772
1.0716
1.0707
1.0691
1.069
1.0646
1.0546
1.0346
1.0318
1.0145
1.0143
1.0477
1.0568
1.0453
1.0306
1.0256
1.0152
1.0072
1.0051
1.0059
1.0031
0.99142
0.96852
0.96809
0.95584
0.9529
0.95049
0.94122
0.93425
0.92805
0.90266
0.90168
0.88215
0.88241
0.88126
0.86309
0.85542
0.84594
0.83195
0.82171
0.82005
0.82121
0.82369
0.84448
0.84021
0.82899
0.8288
0.80883
0.76785
0.75754
0.7456
0.73246
0.73214
0.70691
0.66475
0.64304
0.63383
0.60114
0.60025
0.59674
0.58488
0.57546
0.55366
0.56435
0.56511
0.55744
0.54753
0.54809
0.54809
0.5496
0.54995
0.55054
0.55231
0.55245
0.55596
0.5663
0.56883
0.594
0.59706
0.59711
0.62547
0.62889
0.62891
0.63919
0.68659
0.69573
0.695
0.68915
0.6823
0.68228
0.71804
0.73333
0.80508
0.82815
0.8414
0.84769
0.84425
0.83726
0.81135
0.80654
0.7616
0.69567
0.67294
0.60788
0.59134
0.55641
0.52359
0.51436
0.51533
0.51809
0.54958
0.55179
0.57954
0.58083
0.58086
0.57466
0.57735
0.56511
0.56113
0.54812
0.54603
0.53448
0.53421
0.5242
0.50797
0.50543
0.50798
0.50715
0.50007
0.48368
0.47603
0.46243
0.46215
0.45924
0.45527
0.45639
0.45212
0.45305
0.46212
0.48645
0.494
0.50046
0.55052
0.55485
0.55599
0.56653
0.56824
0.56823
0.56584
0.55533
1.6121
1.6112
1.6066
1.577
1.5443
1.5711
1.5755
1.5851
1.5478
1.3877
1.1944
1.1551
1.0672
0.97515
0.84729
0.84256
0.74682
0.73816
0.73755
0.73606
0.78624
0.79498
0.8726
0.97556
0.9802
0.98024
1.0335
1.0395
1.0395
1.0567
1.0576
1.0933
1.1127
1.1309
1.1243
1.1224
1.1017
1.0305
1.0221
1.0183
0.96216
0.92834
0.92686
0.93024
0.94237
0.94274
0.94322
0.94661
0.9348
0.93488
0.92086
0.9242
0.92568
0.93272
0.93438
0.95106
0.95216
0.99255
0.99507
0.99658
0.99661
1.0078
1.0078
0.98597
0.97272
0.96655
0.92319
0.91508
0.91072
0.89486
0.89233
0.88309
0.88876
0.89102
0.90687
0.92619
0.92696
0.92565
0.86168
0.85242
0.82554
0.83541
0.84295
0.84474
0.8344
0.82856
0.81729
0.81064
0.81061
0.80485
0.79758
0.79398
0.77589
0.73447
0.73259
0.7221
0.72193
0.65841
0.65816
0.64443
0.64426
0.62794
0.58975
0.55216
1.8681
1.8868
1.8939
1.9007
1.9008
1.914
1.9099
1.8834
1.8676
1.8667
1.8451
1.7525
1.7089
1.6645
1.6567
1.6013
1.5934
1.5651
1.5646
1.5634
1.5741
1.6644
1.7192
1.7037
1.7019
1.6561
1.6538
1.643
1.6385
1.6336
1.6335
1.632
1.6254
1.6231
1.6224
1.6206
1.6188
1.6177
1.6114
1.6193
1.627
1.633
1.6325
1.6325
1.6301
1.6299
1.6318
1.6331
1.6399
1.6737
1.6844
1.7136
1.719
1.7152
1.7148
1.6896
1.6895
1.6568
1.6586
1.6409
1.5721
1.5594
1.503
1.4212
1.3955
1.3852
1.3482
1.3435
1.3396
1.3637
1.3714
1.3943
1.3963
1.4034
1.4124
1.4199
1.3988
1.4033
1.395
1.3883
1.3868
1.3852
1.3834
1.379
1.3721
1.3697
1.3606
1.3028
1.2912
1.2511
1.2782
1.2919
1.2605
1.2105
1.1755
0.94078
0.8984
0.88197
0.84767
0.83526
0.82477
0.70884
0.691
0.68307
0.64648
0.62572
0.62611
0.61387
0.64204
0.64322
0.68151
0.70103
0.71453
0.71515
0.74037
0.80197
0.8272
0.83979
0.8827
0.884
0.88703
0.88824
0.89044
0.88352
0.88316
0.82947
0.82829
0.815
0.83688
0.83786
0.86339
0.87357
0.88248
0.88007
0.89099
0.89292
0.89293
0.88893
0.85694
0.85108
0.84287
0.83633
0.80771
0.80737
0.78651
0.78357
0.773
0.75154
0.71995
0.72524
0.72519
0.72312
0.72347
0.74069
0.75958
0.76185
0.75403
0.73126
0.70943
0.70055
0.69385
0.71304
0.71499
0.72789
0.74073
0.79054
0.80939
0.81545
0.84274
0.87912
0.88414
0.90133
0.89033
0.88795
0.87481
0.84547
0.84412
0.84411
0.84868
0.85184
0.86749
0.87556
0.87609
0.87609
0.87652
0.87224
0.86719
0.85851
0.81384
0.73973
0.73624
0.74832
0.7482
0.7482
0.75091
0.75092
0.75293
0.75303
0.77289
0.77273
0.77272
0.81542
0.81533
0.81533
0.8027
0.79211
0.78477
0.7594
0.74669
0.73676
0.68947
0.68811
0.68574
0.66523
0.64192
0.64182
0.59865
0.59699
0.58451
0.55921
0.54498
0.54275
0.53495
0.53176
0.49707
0.4821
0.49254
0.52579
0.52625
0.5265
0.53402
0.55966
0.57264
0.58447
0.71766
0.71835
0.75756
0.76214
0.81642
0.83304
0.84771
0.83853
0.83766
0.83765
0.81909
0.81536
0.8058
0.79116
0.80728
0.87015
0.88368
0.90892
0.92117
0.95527
0.94814
0.94814
0.93284
0.92391
0.9197
0.90783
0.90145
0.89494
0.873
0.86507
0.85744
0.85738
0.84669
0.84665
0.82261
0.82241
0.80635
0.80595
0.8032
0.799
0.75382
0.75256
0.7545
0.80232
0.80167
0.78936
0.78863
0.76952
0.72915
0.7281
0.72652
0.7073
0.69241
0.67602
0.6697
0.66707
0.62943
0.62453
0.62129
1.7097
1.7167
1.722
1.7228
1.7211
1.7091
1.7021
1.6952
1.6857
1.6745
1.6386
1.5592
1.548
1.5259
1.5092
1.4494
1.4018
1.4009
1.3252
1.3189
1.3011
1.3016
1.3255
1.3284
1.3469
1.3882
1.4565
1.4664
1.4677
1.4682
1.4808
1.4013
1.3662
1.2928
1.287
1.2378
1.2356
1.2117
1.1763
1.1133
1.1123
1.0685
1.0022
0.95251
0.91276
0.89355
0.88431
0.86218
0.84978
0.83031
0.83023
0.79738
0.79639