# vtk DataFile Version 3.0
vtk output
ASCII
DATASET POLYDATA
POINTS 61612 float
-30.001 -162.1 -148.15
-35.348 -151.16 -193.45
-50.627 -149.81 -214.08
-60.124 -151.03 -228.03
-63.424 -150.68 -235.42
-67.436 -145.3 -239.44
-72.412 -138.97 -240
-79.98 -125.1 -241.41
-82.361 -113.12 -238.98
-86.584 -119.92 -244.3
-66.825 -150.49 -242.88
-68.083 -149.91 -245.49
-72.58 -148.07 -253.72
-81.779 -149.57 -258
-89.725 -147.35 -257.47
-105.65 -131.95 -254.99
-87.464 -151.48 -261.54
-103.82 -165.63 -275.5
-108.18 -158.62 -267.4
-66.122 -154.95 -265.49
-68.713 -157.37 -269.86
-65.619 -155.19 -267.58
-76.414 -144.45 -261.66
-83.675 -141.73 -270.3
-98.101 -130.72 -273.2
-70.608 -138.56 -260.95
-75.361 -116.37 -266.78
-65.073 -130.74 -271.66
-88.505 -141.85 -277.21
-105.11 -133.32 -300.35
-107.04 -142.96 -292.73
-78.517 -137.39 -273.77
-89.505 -123.48 -284.15
-91.568 -122.68 -285.16
-90.133 -121.48 -284.42
-80.355 -130.35 -289.33
-82.418 -130.45 -292.94
-80.303 -126.58 -296.05
-81.436 -124.3 -298.35
-79.617 -121.18 -309.08
-76.581 -117.25 -319.13
-80.188 -120.67 -311.43
-64.904 -138.62 -239.74
-65.244 -127.05 -236.22
-60.33 -134.44 -241.95
-69.814 -163.64 -242.9
-74.053 -166.86 -244.94
-84.326 -175.09 -245.96
-93.496 -187.68 -249.84
-80.447 -179.28 -252.3
-84.538 -190.14 -257.66
-80.004 -181.11 -254.07
-57.273 -150.09 -216.21
-71.284 -155.74 -214.79
-79.751 -163.69 -216.21
-95.962 -172.61 -218.26
-79.826 -174.8 -215.13
-84.71 -182.52 -215.97
-80.443 -176.84 -214.37
-80.867 -183.96 -213.4
-79.574 -186.28 -214.38
-80.552 -186.68 -213.24
-73.222 -203 -206.85
-79.439 -192.72 -214.33
-64.025 -151.57 -215.58
-70.424 -151.5 -213.86
-84.449 -150.03 -213.59
-98.317 -152.98 -217.93
-4.3095 -148.71 -233.4
3.5817 -147.28 -240.55
4.7988 -146.85 -241.19
13.84 -145.91 -251.55
15.58 -144.67 -255.78
20.135 -142.29 -270.5
21.664 -135.24 -282.22
22.501 -133.86 -291.44
23.126 -134.18 -296.11
20.233 -131.58 -296.24
24.644 -127.35 -288.7
31.297 -139.49 -281.89
33.154 -139.97 -287.66
37.984 -141 -290.26
35.966 -141.12 -291.9
32.675 -138.68 -282.29
22.713 -140.67 -262.47
28.177 -138.86 -264.75
31.753 -134.26 -266.82
35.035 -130.37 -269.06
33.494 -132.22 -266.4
43.911 -128.37 -263.74
25.639 -148.39 -263.75
12.183 -150.5 -262.9
6.298 -153.7 -234.39
11.282 -155.99 -233.3
18.676 -160.16 -227.64
20.1 -166.3 -219.06
18.921 -177.22 -210.35
20.741 -169.46 -211.97
21.893 -163.73 -225.05
30.255 -166.8 -220.58
28.021 -202.04 -222.01
28.726 -207.29 -222.41
31.29 -205.32 -221.29
18.641 -159.84 -238.59
29.294 -170.82 -251.73
36.189 -176.91 -256.46
29.268 -172.04 -253.32
27.596 -166.57 -241.53
35.828 -178.75 -244.37
38.132 -184.24 -245.27
35.474 -167.73 -242.6
43.345 -171.05 -243.2
39.453 -166.49 -241.76
-79.221 -143.2 -211.38
-77.991 -136.05 -208.29
-77.929 -134.22 -209.13
19.528 -154.99 -223.78
28.15 -152.91 -216.55
32.905 -151.84 -211.43
43.523 -150.64 -217.77
22.23 -150.24 -211.78
27.272 -145.23 -204.58
28.911 -140.85 -194.59
30.276 -139.31 -192.24
28.919 -139.16 -192.08
22.962 -148.7 -203.45
24.889 -148.61 -195.71
34.094 -135.45 -200.63
38.725 -132.39 -200.23
34.478 -134.55 -199.95
21.36 -147.08 -198.11
13.667 -137.35 -245.57
13.58 -131.62 -244.98
22.385 -126.49 -242.06
27.297 -118.47 -239.5
25.596 -124.47 -241.37
-78.952 -193.52 -246.67
-79.288 -196.84 -246.65
-78.502 -204.3 -248.49
-80.072 -199.76 -246.54
-80.946 -197.97 -248.91
-76.493 -132.42 -206.76
-74.91 -128.46 -206.22
-76.532 -131.04 -205.6
-91.707 -127.67 -210.19
-92.586 -123.72 -210.92
-94.419 -125.4 -211.03
-71.222 -153.47 -205.11
-74.83 -149.38 -196.28
-82.868 -148.57 -188.72
-73.622 -156.01 -198.41
-79.746 -158.18 -191.7
-74.09 -159.16 -189.03
-74.303 -159.76 -185.46
-72.845 -160.17 -186.25
-74.933 -147.53 -191.5
-76.897 -142.33 -181.32
-72.011 -141.36 -185.1
-102.78 -145.52 -257.64
-84.319 -186.38 -203.47
42.131 -183.27 -245.33
30.005 -129.65 -314.93
22.265 -142.25 -307.6
15.255 -129.01 -307.41
23.615 -124.67 -316.82
31.587 -116.94 -291.57
22.045 -117.96 -289.59
54.486 -148.51 -304.62
52.484 -149.33 -292.41
43.259 -139.09 -308.48
40.399 -156.82 -301.94
35.619 -139.89 -282.62
33.885 -138.61 -280.77
32.218 -122.62 -268.62
35.827 -126.58 -271.82
35.309 -132.17 -264.83
30.568 -128.48 -265.58
51.897 -125.32 -267.98
52.177 -127.86 -258.77
28.52 -135.6 -260.7
29.137 -151.62 -266.93
31.234 -150.4 -261.61
9.5847 -127.76 -242.28
10.121 -128.19 -249.29
31.884 -113.15 -231.1
24.473 -109.78 -240.05
28.143 -126.48 -243.22
27.675 -125.83 -238.29
36.472 -129.06 -325.96
39.863 -121.44 -323.51
16.379 -147.14 -316.72
18.627 -149.76 -310.09
11.694 -125.69 -307.79
11.225 -131.6 -309.03
27.081 -116.2 -325.54
20.901 -125.54 -331.34
36.164 -110.64 -296.82
36.497 -109.92 -290.07
19.45 -112.29 -285.48
17.021 -116.06 -290.25
65.398 -162.59 -311.32
66.099 -146.07 -312.53
58.595 -158.44 -289.43
61.487 -149.84 -288.36
51.895 -134.35 -316.14
48.942 -132.72 -315.68
37.219 -165.2 -307.69
47.516 -171.09 -305.25
37.273 -139.04 -284.79
36.102 -143.4 -282.62
32.575 -140.2 -276.77
33.222 -136.46 -278.13
31.71 -115.74 -269.73
32.046 -116.92 -266.28
35.452 -126.33 -274.03
37.947 -125.7 -272.62
37.446 -133.07 -265.33
36.303 -133.63 -262.9
29.153 -127.05 -263.58
26.573 -128.26 -267.63
57.621 -120.68 -268.27
56.198 -122.52 -273.65
60.437 -129.21 -257.78
55.556 -127 -253.12
28.725 -136.43 -258.44
26.576 -132 -258.92
33.176 -149.26 -257.94
37.467 -151.95 -262.32
8.5373 -125.05 -236.61
4.0451 -130.31 -238.85
7.4192 -129.47 -253.35
8.4694 -122.82 -252.84
29.089 -109.53 -221.98
38.27 -108.47 -229.14
18.998 -105.41 -240.66
27.278 -102.95 -242.47
31.554 -129.08 -243.37
28.445 -126.16 -245.3
31.469 -127.73 -237.09
26.321 -126.13 -235.52
36.701 -129.59 -331.57
38.57 -132.46 -328.04
44.607 -114.86 -332.68
49.73 -117.56 -330.74
10.606 -153.17 -320.62
15.711 -150.24 -323.8
14.734 -151.56 -307.62
19.679 -152.34 -309.04
10.218 -122.05 -310.75
11.108 -124 -305.73
7.995 -132.91 -306.9
11.21 -133.7 -308.92
28.966 -109.81 -325.9
27.015 -111.63 -332.54
22.515 -122.23 -342.38
16.055 -127.99 -338.07
42.222 -109.06 -299.48
35.287 -104.68 -299.84
40.755 -106.85 -287.61
37.152 -102.29 -288.93
15.119 -109.88 -282.73
19.666 -106.13 -284.38
12.303 -118.29 -288.15
15.997 -114.84 -293.03
72.228 -174.37 -311.7
73.727 -166.8 -318.5
72.366 -141.52 -312.97
72.948 -144.91 -323.43
58.145 -162.26 -286.39
66.086 -162.81 -287.1
65.561 -149.88 -283.08
67.702 -148.29 -288.78
56.224 -133.6 -318.66
58.896 -128.25 -321.85
51.386 -129.11 -314.14
47.76 -130.52 -316.79
36.892 -165.54 -312.8
32.557 -169.65 -309.33
49.574 -180.54 -310.97
49.977 -178.39 -303.94
37.368 -136.67 -287.33
38.765 -139.82 -287.68
38.651 -145.81 -283.04
33.906 -146.01 -284.38
30.778 -141.69 -276.64
28.407 -140.55 -275.87
29.671 -134.29 -278.05
32.946 -134.57 -278.46
34.396 -110.4 -270.21
29.171 -110.42 -269.16
35.679 -113.91 -264.05
30.842 -115.44 -263.58
35.699 -125.03 -276.61
33.865 -126.6 -275.57
40.287 -126.01 -274.93
39.791 -124.8 -271.58
40.038 -135.36 -266.16
39.627 -132.59 -265.41
36.879 -133.19 -260.62
38.305 -134.91 -261.82
28.305 -125.15 -262.8
30.232 -126.31 -261.76
22.426 -128.57 -268.35
23.954 -129.07 -270.55
60.754 -116.94 -265.78
58.95 -114.11 -269.26
57.778 -122.84 -278.16
62.057 -119.38 -277.75
65.499 -132.74 -259.94
66.337 -130.79 -254.25
54.956 -127.1 -249.48
59.964 -122.41 -248.73
29.771 -137.43 -257.71
26.01 -138.74 -256.98
25.621 -131.35 -257.07
24.893 -153.47 -273.51
28.702 -157.16 -272.15
33.024 -148.74 -254.68
34.394 -147.69 -256.48
43.071 -153.5 -260.99
40.766 -151.96 -264.28
6.3346 -120.4 -233.52
9.7737 -125.24 -232.92
1.8526 -133.86 -234.55
1.6074 -134.8 -238.55
6.5947 -133.52 -254.14
6.5378 -130.4 -258.54
6.833 -118.19 -253.22
6.3257 -120.7 -257.21
22.33 -107.77 -217.17
30.143 -103.98 -215.97
42.779 -106 -231.46
43.695 -107.29 -224.99
16.334 -100.35 -241.26
14.688 -104.72 -240.43
26.503 -97.961 -246.05
32.02 -99.412 -243.78
34.146 -129.3 -244.45
32.615 -133.01 -242.74
30.334 -123.81 -246.65
26.623 -125.98 -246.72
33.786 -128 -234.48
35.363 -127.72 -237.02
26.606 -124.74 -233.11
35.073 -129.19 -332.69
37.959 -131.62 -335.56
37.385 -136.37 -329.35
39.702 -134.72 -327.13
45.639 -108.86 -336.06
47.889 -112.57 -343.78
55.544 -112.72 -335.34
56.969 -117.61 -336.85
8.2188 -159.99 -321.29
6.7187 -155.49 -326.28
18.462 -152.18 -326.56
13.541 -150.23 -329.63
11.662 -150.59 -306.09
14.046 -152.97 -304.21
22.073 -152.36 -306.46
21.981 -153.29 -309.94
10.396 -121.31 -314.1
8.8268 -118.08 -310.78
13.608 -122.87 -303.67
9.0439 -123.76 -303.49
6.7515 -134.05 -302.62
5.297 -134.78 -307.9
14.336 -135.59 -307.75
11.748 -135.43 -311.54
31.076 -107.69 -323.96
26.384 -105.67 -324.62
28.327 -107.5 -335.96
24.046 -110.36 -334.26
23.936 -117.27 -349.49
21.3 -122.88 -350.48
12.111 -128.53 -338.44
13.937 -132.86 -343.96
47.944 -107.3 -299.62
44.754 -107.67 -303.11
32.034 -101.8 -301
36.888 -101 -303.25
45.55 -104.43 -287.82
41.789 -107.63 -285.97
40.003 -97.148 -289.3
36.087 -97.695 -285.96
12.83 -106.67 -279.53
11.713 -109.89 -281.59
18.943 -101.42 -281.41
19.469 -102.38 -286.44
10.957 -121.69 -286.33
8.0288 -118.23 -288.53
17.534 -115.18 -295.37
14.209 -111.2 -295.39
79.536 -180.23 -312.76
74.342 -185.05 -313.26
80.732 -167.99 -320.01
77.528 -168.4 -325.2
76.357 -142.85 -310.97
74.02 -137.04 -311.01
79.843 -145.86 -328.5
75.292 -141.3 -331.12
56.037 -164.46 -286.96
56.849 -162.36 -283.39
69.209 -167.33 -287.51
72.372 -164.02 -283.55
71.774 -150.16 -279.4
65.219 -150.07 -279.18
70.685 -144.32 -288.69
71.394 -149.43 -290.62
57.332 -136.15 -321.57
59.296 -135.92 -318
64.171 -126.57 -325.45
62.813 -122.81 -320.24
53.728 -129.23 -310.46
51.109 -126.87 -311.68
44.268 -129.02 -315.16
44.498 -130.68 -317.84
40.122 -165.06 -315.24
36.656 -163.03 -315.22
31.387 -173.94 -310.15
27.982 -172.21 -312.78
47.043 -184.36 -315.02
53.129 -189.41 -312.83
49.104 -180.06 -300.88
53.406 -179.71 -302.07
36.985 -133.75 -288.48
37.689 -135.51 -290.99
40.218 -142.14 -291.09
41.615 -139.31 -289.86
39.801 -148.07 -282.25
41.826 -146.18 -283.55
33.566 -149.2 -286.39
30.598 -146.16 -286.46
30.744 -143.11 -275.2
30.7 -142.74 -277.5
[...]
POINT_DATA 61612
SCALARS radius double 
LOOKUP_TABLE default 
7.5063
8.2516
5.6757
3.2845
3.1224
1.9548
1.2443
0.68369
0.4309
0.71552
2.9851
3.2732
3.1876
2.0073
0.81471
0.32641
1.411
0.49148
0.73332
0.69198
0.55188
0.54328
2.1363
1.8346
0.5185
1.6135
0.55533
0.55216
1.6844
0.62129
0.9901
1.7345
0.68872
0.51048
0.42465
1.6309
0.59196
1.2287
0.57737
0.85645
0.44862
0.66577
1.3479
0.51589
0.92625
1.574
1.4525
0.76976
0.69864
0.96248
0.76652
0.62239
4.7515
2.4838
1.3954
0.64185
1.6969
0.46709
1.6993
1.2377
0.76683
0.81356
0.84946
0.37149
3.5375
2.7092
1.0422
0.58724
5.3409
3.8724
3.8235
3.0341
2.6622
2.4173
2.0964
1.5317
1.4092
0.49716
0.77571
1.0926
0.71049
0.57403
0.69633
0.81501
1.3438
1.1039
0.86504
0.55303
0.71339
0.59054
1.5011
0.94186
4.3404
4.0085
2.8741
1.4581
1.0378
1.0756
1.9606
0.77117
0.86685
0.55382
0.68029
2.5723
1.0291
0.86169
0.82582
1.3137
0.88255
0.79746
0.99615
0.52707
0.66323
1.3527
0.75043
0.5798
2.2747
1.4407
0.47899
0.40882
1.524
1.2812
0.82657
0.69497
0.61932
0.83493
0.65277
0.74439
0.66757
0.75935
0.69148
2.0719
0.50191
1.2251
0.70866
0.66362
0.96927
0.57758
0.67358
0.68504
0.63291
0.69387
0.32115
0.46437
0.57461
0.2877
0.41141
1.8707
1.1802
0.40154
1.1809
0.52312
0.77934
0.43161
0.52108
0.97928
0.78687
0.37418
0.22475
0.47115
0.31765
1.2254
1.0655
0.28425
0.43231
0.67453
0.58655
0.49915
0.28539
0.52653
0.6055
0.70871
0.53588
0.4809
0.36363
0.46907
0.62034
0.44653
0.51351
0.5772
1.3053
1.3053
0.37951
0.43644
0.61623
0.46596
0.57706
0.57706
0.80569
1.0655
0.92654
0.60922
0.24718
0.21494
0.28425
0.37593
0.58655
0.58655
0.44352
0.51004
0.43405
0.28539
0.24817
0.2158
0.45785
0.39813
0.39813
0.52653
0.61627
0.53588
0.46599
0.40521
0.41817
0.3162
0.3162
0.3162
0.40788
0.30842
0.30842
0.53943
0.2936
0.38829
0.44653
0.38829
0.50191
0.28697
0.987
1.135
0.33001
0.33001
0.37951
0.28697
0.53585
0.40518
0.40518
0.30637
0.43634
0.5018
0.37943
0.5018
0.60922
0.7006
0.92654
0.80569
0.80569
0.60922
0.52975
0.52975
0.21494
0.1869
0.1869
0.1869
0.21494
0.24718
0.32689
0.24718
0.38567
0.51004
0.51004
0.51004
0.38567
0.38567
0.38567
0.44352
0.37743
0.28539
0.18765
0.24817
0.2158
0.18765
0.18765
0.18765
0.3462
0.39813
0.30104
0.3462
0.3462
0.3462
0.45785
0.3462
0.40521
0.53588
0.35235
0.46599
0.40521
0.40521
0.15233
0.35235
0.36363
0.3162
0.27495
0.23909
0.23909
0.27495
0.23909
0.27495
0.35468
0.30842
0.26819
0.26819
0.26819
0.23321
0.46907
0.30842
0.22201
0.25531
0.25531
0.33764
0.38829
0.2936
0.25531
0.33764
0.18869
0.43644
0.24954
1.135
0.987
0.56432
0.85826
0.987
0.64897
0.28697
0.21699
0.28697
0.21699
0.21699
0.33001
0.21699
0.24954
0.46596
0.35233
0.30637
0.35233
0.35233
0.23166
0.26641
0.26641
0.24948
0.37943
0.2869
0.43634
0.32994
0.2869
0.43634
0.46066
0.52975
0.60922
0.34832
0.60922
0.80569
0.60922
0.7006
0.7006
0.7006
0.52975
0.46066
0.46066
0.30289
0.46066
0.46066
0.16252
0.1869
0.16252
0.10686
0.16252
0.12289
0.16252
0.14132
0.1869
0.16252
0.16252
0.21494
0.28425
0.21494
0.16252
0.21494
0.33536
0.33536
0.38567
0.44352
0.38567
0.44352
0.33536
0.44352
0.33536
0.29162
0.29162
0.33536
0.33536
0.29162
0.29162
0.38567
0.2158
0.3282
0.18765
0.24817
0.16317
0.16317
0.18765
0.2158
0.18765
0.12338
0.14189
0.16317
0.14189
0.16317
0.16317
0.14189
0.26178
0.30104
0.22763
0.3462
0.22763
0.26178
0.26178
0.30104
0.30104
0.26178
0.22763
0.30104
0.39813
0.30104
0.30104
0.30104
0.35235
0.35235
0.46599
0.40521
0.30639
0.30639
0.40521
0.35235
0.35235
0.20146
0.23168
0.35235
0.30639
0.23168
0.2079
0.3162
0.27495
0.27495
0.2079
0.23909
0.2079
0.18079
0.15721
0.2079
0.23909
0.18079
0.2079
0.15721
0.1367
0.23909
0.30842
0.30842
0.26819
0.17634
0.20279
0.23321
0.23321
0.23321
0.23321
0.15334
0.20279
0.17634
0.40788
0.26819
0.26819
0.19305
0.19305
0.22201
0.22201
0.16787
0.22201
0.2936
0.22201
0.22201
0.33764
0.19305
0.25531
0.22201
0.16787
0.2936
0.2936
0.12406
0.16408
0.14267
0.37952
0.16408
0.21699
0.21699
0.987
0.49071
0.85826
0.49071
0.42671
0.74631
0.56432
0.74631
0.85826
0.56432
0.49071
0.18869
0.24954
0.14267
0.18869
0.24954
0.18869
0.16407
0.16407
0.18869
0.24954
0.28697
0.18869
0.18869
0.16407
0.21699
0.40518
0.30637
0.20145
0.30637
0.26641
0.26641
0.30637
0.20145
0.30637
0.26641
0.20145
0.17517
0.17517
0.23166
0.23166
0.23166
0.21694
0.21694
0.32994
0.24948
0.24948
0.24948
0.37943
0.21694
0.16404
0.2869
0.24948
0.21694
0.37943
0.32994
0.34832
0.40057
0.40057
0.46066
0.40057
0.52975
0.30289
0.22903
0.46066
0.52975
0.60922
0.7006
0.46066
0.52975
0.60922
0.52975
0.46066
0.60922
0.60922
0.46066
0.46066
0.40057
0.40057
0.34832
0.40057
0.30289
0.26338
0.26338
0.40057
0.30289
0.30289
0.40057
0.14132
0.10686
0.092923
0.16252
0.14132
0.092923
0.092923
0.092923
0.10686
0.14132
0.10686
0.092923
0.14132
0.10686
0.12289
0.12289
0.12289
0.16252
0.12289
0.14132
0.12289
0.14132
0.1869
0.10686
0.24718
0.24718
0.1869
0.1869
0.14132
0.14132
0.1869
0.16252
0.29162
0.25358
0.29162
0.22051
0.33536
0.25358
0.38567
0.29162
0.29162
0.33536
0.38567
0.19174
0.29162
0.29162
0.38567
0.33536
0.29162
0.25358
0.22051
0.25358
0.25358
0.25358
0.29162
0.19174
0.29162
0.22051
0.25358
0.19174
0.19174
0.25358
0.22051
0.33536
0.18765
0.14189
0.16317
0.28539
0.14189
0.16317
0.14189
0.2158
0.14189
0.12338
0.10729
0.14189
0.16317
0.14189
0.18765
0.14189
0.16317
0.093296
0.10729
0.081127
0.10729
0.12338
0.14189
0.14189
0.12338
0.093296
0.12338
0.14189
0.10729
0.14189
0.081127
0.12338
0.22763
0.22763
0.26178
0.14967
0.19794
0.19794
0.30104
0.26178
0.19794
0.17212
0.22763
0.22763
0.22763
0.19794
0.17212
0.26178
0.26178
0.26178
0.22763
0.19794
0.19794
0.26178
0.26178
0.3462
0.26178
0.26178
0.26178
0.17212
0.26178
0.26178
0.19794
0.30639
0.30639
0.40521
0.30639
0.35235
0.26643
0.26643
0.26643
0.26643
0.26643
0.30639
0.35235
0.26643
0.30639
0.30639
0.20146
0.15233
0.17518
0.20146
0.15233
0.20146
0.26643
0.15233
0.15233
0.20146
0.18079
0.15721
0.27495
0.23909
0.23909
0.23909
0.15721
0.23909
0.10337
0.18079
0.2079
0.18079
0.1367
0.18079
0.15721
0.15721
0.1367
0.1367
0.1367
0.18079
0.15721
0.2079
0.15721
0.11887
0.18079
0.1367
0.1367
0.11887
0.11887
0.10337
0.2079
0.1367
0.20279
0.26819
0.20279
0.26819
0.23321
0.23321
0.15334
0.15334
0.17634
0.15334
0.20279
0.17634
0.20279
0.15334
0.17634
0.20279
0.20279
0.17634
0.17634
0.15334
0.15334
0.20279
0.35468
0.23321
0.20279
0.17634
0.17634
0.23321
0.14597
0.16787
0.12693
0.16787
0.16787
0.19305
0.19305
0.16787
0.12693
0.14597
0.14597
0.19305
0.19305
0.25531
0.19305
0.16787
0.14597
0.19305
0.2936
0.19305
0.12693
0.16787
0.22201
0.16787
0.19305
0.14597
0.14597
0.14597
0.25531
0.22201
0.16787
0.25531
0.14267
0.14267
0.12406
0.12406
0.33001
0.18869
0.14267
0.18869
0.12406
0.12406
0.18869
0.85826
0.56432
0.28057
0.42671
0.64897
0.74631
0.42671
0.32265
0.37105
0.64897
0.32265
0.49071
0.32265
0.64897
0.56432
0.74631
0.64897
0.49071
0.49071
0.42671
0.42671
0.16407
0.14267
0.21699
0.14267
0.12406
0.12406
0.16407
0.16407
0.09381
0.21699
0.16407
0.14267
0.12406
0.14267
0.16407
0.14267
0.21699
0.12406
0.24954
0.10788
0.14267
0.16407
0.16407
0.16407
0.14267
0.14267
0.18869
0.14267
0.35233
0.20145
0.26641
0.20145
0.17517
0.17517
0.23166
0.26641
0.15232
0.23166
0.23166
0.15232
0.20145
0.26641
0.17517
0.17517
0.26641
0.20145
0.23166
0.20145
0.15232
0.17517
0.13245
0.15232
0.15232
0.13245
0.20145
0.13245
0.15232
0.20145
0.20145
0.20145
0.18864
0.12404
0.12404
0.18864
0.18864
0.2869
0.16404
0.21694
0.21694
0.18864
0.21694
0.14264
0.18864
0.32994
0.18864
0.18864
0.14264
0.14264
0.24948
0.16404
0.21694
0.14264
0.18864
0.14264
0.21694
0.32994
0.18864
0.2869
0.30289
0.30289
0.34832
0.34832
0.34832
0.30289
0.34832
0.40057
0.30289
0.34832
0.26338
0.46066
0.26338
0.22903
0.19915
0.19915
0.40057
0.40057
0.30289
0.46066
0.46066
0.52975
0.34832
0.60922
0.40057
0.30289
0.46066
0.34832
0.46066
0.52975
0.46066
0.30289
0.40057
0.34832
0.40057
0.52975
0.52975
0.46066
0.30289
0.40057
0.40057
0.26338
0.30289
0.34832
0.34832
0.34832
0.30289
0.30289
0.26338
0.34832
0.26338
0.22903
0.22903
0.22903
0.22903
0.22903
0.22903
0.34832
0.22903
0.26338
0.26338
0.22903
0.34832
0.30289
0.12289
0.092923
0.080803
0.092923
0.080803
0.080803
0.14132
0.14132
0.10686
0.12289
0.080803
0.061098
0.080803
0.080803
0.080803
0.070263
0.080803
0.092923
0.092923
0.12289
0.092923
0.092923
0.080803
0.061098
0.12289
0.070263
0.080803
0.092923
0.10686
0.092923
0.080803
0.10686
0.080803
0.10686
0.12289
0.14132
0.10686
0.10686
0.10686
0.12289
0.092923
0.10686
0.10686
0.12289
0.10686
0.16252
0.092923
0.092923
0.21494
0.16252
0.21494
0.092923
0.12289
0.16252
0.16252
0.10686
0.12289
0.12289
0.10686
0.12289
0.14132
0.16252
0.12289
0.14132
0.25358
0.25358
0.19174
0.22051
0.19174
0.25358
0.19174
0.19174
0.19174
0.29162
0.22051
0.19174
0.19174
0.33536
0.22051
0.25358
0.19174
0.25358
0.29162
0.16673
0.19174
0.33536
0.16673
0.16673
0.25358
0.19174
0.25358
0.19174
0.33536
0.14499
0.19174
0.29162
0.22051
0.25358
0.22051
0.16673
0.16673
0.19174
0.16673
0.22051
0.22051
0.22051
0.22051
0.22051
0.25358
0.22051
0.16673
0.16673
0.25358
0.19174
0.19174
0.19174
0.14499
0.22051
0.16673
0.16673
0.16673
0.16673
0.22051
0.22051
0.19174
0.16673
0.16673
0.29162
0.16317
0.12338
0.12338
0.12338
0.10729
0.14189
0.16317
0.24817
0.12338
0.12338
0.10729
0.14189
0.093296
0.12338
0.18765
0.093296
0.12338
0.10729
0.10729
0.081127
0.081127
0.093296
0.10729
0.12338
0.14189
0.10729
0.10729
0.12338
0.16317
0.12338
0.12338
0.10729
0.081127
0.14189
0.070545
0.081127
0.070545
0.093296
0.070545
0.070545
0.081127
0.093296
0.093296
0.10729
0.10729
0.12338
0.081127
0.12338
0.093296
0.10729
0.081127
0.081127
0.070545
0.10729
0.12338
0.070545
0.070545
0.093296
0.10729
0.12338
0.070545
0.070545
0.10729
0.081127
0.19794
0.17212
0.19794
0.17212
0.19794
0.22763
0.11317
0.13015
0.17212
0.17212
0.17212
0.17212
0.19794
0.26178
0.17212
0.22763
0.17212
0.14967
0.14967
0.14967
0.098411
0.19794
0.19794
0.11317
0.19794
0.14967
0.17212
0.13015
0.13015
0.14967
0.13015
0.22763
0.17212
0.22763
0.17212
0.22763
0.17212
0.19794
0.14967
0.17212
0.17212
0.17212
0.14967
0.22763
0.22763
0.17212
0.22763
0.19794
0.30104
0.22763
0.22763
0.22763
0.22763
0.17212
0.22763
0.14967
0.14967
0.22763
0.17212
0.22763
0.14967
0.17212
0.14967
0.26643
0.15233
0.26643
0.26643
0.26643
0.26643
0.30639
0.35235
0.17518
0.26643
0.17518
0.30639
0.23168
0.17518
0.23168
0.23168
0.17518
0.20146
0.23168
0.23168
0.20146
0.23168
0.26643
0.30639
0.23168
0.20146
0.23168
0.20146
0.26643
0.15233
0.26643
0.17518
0.17518
0.15233
0.15233
0.15233
0.17518
0.17518
0.17518
0.23168
0.15233
0.15233
0.17518
0.1367
0.15721
0.1367
0.1367
0.23909
0.18079
0.18079
0.2079
0.15721
0.2079
0.11887
0.2079
0.11887
0.1367
0.1367
0.2079
0.15721
0.1367
0.18079
0.1367
0.11887
0.15721
0.10337
0.11887
0.15721
0.10337
0.1367
0.1367
0.11887
0.1367
0.11887
0.10337
0.11887
0.10337
0.11887
0.11887
0.15721
0.11887
0.10337
0.1367
0.18079
0.11887
0.1367
0.10337
0.10337
0.11887
0.15721
0.10337
0.11887
0.11887
0.10337
0.10337
0.10337
0.10337
0.10337
0.18079
0.1367
0.11887
0.10337
0.17634
0.15334
0.17634
0.23321
0.17634
0.15334
0.23321
0.17634
0.20279
0.17634
0.20279
0.20279
0.15334
0.15334
0.17634
0.15334
0.15334
0.15334
0.17634
0.15334
0.15334
0.15334
0.17634
0.17634
0.17634
0.15334
0.15334
0.15334
0.15334
0.15334
0.15334
0.15334
0.17634
0.26819
0.30842
0.20279
0.17634
0.17634
0.17634
0.15334
0.15334
0.15334
0.15334
0.17634
0.20279
0.12693
0.11038
0.14597
0.14597
0.11038
0.11038
0.12693
0.14597
0.14597
0.14597
0.16787
0.16787
0.14597
0.16787
0.14597
0.14597
0.11038
0.11038
0.12693
0.095979
0.095979
0.12693
0.11038
0.16787
0.16787
0.14597
0.19305
0.22201
0.16787
0.16787
0.12693
0.14597
0.095979
0.12693
0.14597
0.16787
0.25531
0.16787
0.16787
0.14597
0.11038
0.11038
0.11038
0.14597
0.14597
0.19305
0.12693
0.14597
0.16787
0.14597
0.12693
0.12693
0.095979
0.12693
0.11038
0.12693
0.12693
0.22201
0.14597
0.19305
0.12693
0.14597
0.22201
0.11038
0.12406
0.12406
0.12406
0.12406
0.28697
0.14267
0.12406
0.12406
0.12406
0.12406
0.16408
0.12406
0.14267
0.16408
0.56432
0.74631
0.49071
0.37105
0.28057
0.37105
0.37105
0.32265
0.56432
0.64897
0.42671
0.28057
0.37105
0.28057
0.28057
0.28057
0.32265
0.32265
0.28057
0.56432
0.28057
0.28057
0.42671
0.37105
0.28057
0.28057
0.56432
0.37105
0.42671
0.49071
0.64897
0.64897
0.56432
0.49071
0.42671
0.28057
0.28057
0.42671
0.37105
0.37105
0.37105
0.37105
0.081574
0.14267
0.12406
0.081574
0.18869
0.18869
0.10788
0.12406
0.10788
0.10788
0.10788
0.14267
0.14267
0.12406
0.14267
0.081574
0.081574
0.18869
0.10788
0.12406
0.081574
0.14267
0.12406
0.12406
0.09381
0.081574
0.10788
0.10788
0.12406
0.14267
0.12406
0.12406
0.09381
0.18869
0.10788
0.10788
0.09381
0.21699
0.09381
0.09381
0.12406
0.12406
0.10788
0.14267
0.09381
0.14267
0.09381
0.14267
0.10788
0.12406
0.12406
0.12406
0.16407
0.16407
0.12406
0.12406
0.13245
0.30637
0.15232
0.17517
0.23166
0.15232
0.17517
0.15232
0.15232
0.15232
0.15232
0.15232
0.15232
0.20145
0.15232
0.23166
0.13245
0.13245
0.20145
0.17517
0.20145
0.13245
0.13245
0.11518
0.17517
0.11518
0.23166
0.20145
0.13245
0.15232
0.15232
0.13245
0.23166
0.15232
0.13245
0.17517
0.20145
0.15232
0.17517
0.13245
0.11518
0.13245
0.15232
0.13245
0.11518
0.11518
0.13245
0.11518
0.13245
0.10015
0.11518
0.11518
0.17517
0.15232
0.11518
0.11518
0.13245
0.13245
0.17517
0.13245
0.11518
0.17517
0.17517
0.15232
0.16404
0.12404
0.12404
0.16404
0.16404
0.16404
0.14264
0.24948
0.14264
0.12404
0.12404
0.18864
0.16404
0.18864
0.14264
0.16404
0.14264
0.18864
0.12404
0.12404
0.14264
0.2869
0.12404
0.14264
0.16404
0.16404
0.12404
0.12404
0.12404
0.12404
0.16404
0.21694
0.14264
0.14264
0.18864
0.16404
0.12404
0.12404
0.16404
0.14264
0.12404
0.12404
0.18864
0.12404
0.21694
0.2869
0.12404
0.16404
0.18864
0.24948
0.18864
0.26338
0.22903
0.22903
0.26338
0.30289
0.19915
0.30289
0.22903
0.30289
0.22903
0.26338
0.26338
0.30289
0.19915
0.22903
0.34832
0.22903
0.26338
0.19915
0.30289
0.22903
0.17318
0.40057
0.19915
0.22903
0.19915
0.19915
0.17318
0.17318
0.17318
0.15059
0.30289
0.34832
0.34832
0.30289
0.22903
0.26338
0.40057
0.26338
0.40057
0.40057
0.46066
0.30289
0.30289
0.30289
0.34832
0.52975
0.34832
0.26338
0.26338
0.26338
0.22903
0.40057
0.26338
0.30289
0.34832
0.40057
0.34832
0.46066
0.40057
0.34832
0.26338
0.22903
0.34832
0.26338
0.30289
0.26338
0.30289
0.34832
0.46066
0.26338
0.30289
0.46066
0.40057
0.26338
0.22903
0.26338
0.34832
0.22903
0.34832
0.26338
0.22903
0.19915
0.22903
0.26338
0.22903
0.30289
0.30289
0.30289
0.30289
0.19915
0.19915
0.26338
0.26338
0.22903
0.19915
0.22903
0.30289
0.19915
0.22903
0.22903
0.17318
0.19915
0.19915
0.19915
0.19915
0.19915
0.19915
0.17318
0.19915
0.19915
0.19915
0.17318
0.30289
0.17318
0.19915
0.19915
0.17318
0.22903
0.19915
0.22903
0.19915
0.17318
0.30289
0.19915
0.26338
0.19915
0.070263
0.10686
0.070263
0.080803
0.053129
0.070263
0.080803
0.070263
0.061098
0.070263
0.070263
0.053129
0.070263
0.12289
0.12289
0.080803
0.092923
0.053129
0.080803
0.10686
0.070263
0.070263
0.053129
0.053129
0.061098
0.070263
0.061098
0.070263
0.070263
0.061098
0.053129
0.070263
0.070263
0.080803
0.080803
0.080803
0.061098
0.061098
0.10686
0.080803
0.070263
0.080803
0.053129
0.070263
0.061098
0.053129
0.053129
0.10686
0.080803
0.053129
0.061098
0.061098
0.070263
0.080803
0.070263
0.092923
0.061098
0.080803
0.061098
0.070263
0.061098
0.070263
0.092923
0.070263
0.070263
0.092923
0.080803
0.092923
0.10686
0.080803
0.12289
0.092923
0.080803
0.092923
0.070263
0.092923
0.080803
0.080803
0.10686
0.070263
0.080803
0.092923
0.070263
0.092923
0.092923
0.080803
0.10686
0.092923
0.070263
0.14132
0.061098
0.080803
0.070263
0.080803
0.070263
0.10686
0.1869
0.14132
0.10686
0.1869
0.10686
0.080803
0.080803
0.10686
0.080803
0.10686
0.14132
0.070263
0.14132
0.092923
0.080803
0.10686
0.080803
0.10686
0.092923
0.092923
0.070263
0.092923
0.10686
0.092923
0.12289
0.14132
0.14132
0.10686
0.080803
0.12289
0.092923
0.22051
0.19174
0.22051
0.19174
0.14499
0.16673
0.14499
0.19174
0.16673
0.12607
0.19174
0.22051
0.16673
0.16673
0.16673
0.12607
0.16673
0.16673
0.25358
0.16673
0.19174
0.19174
0.16673
0.16673
0.16673
0.16673
0.29162
0.14499
0.19174
0.12607
0.22051
0.19174
0.14499
0.16673
0.10963
0.22051
0.12607
0.25358
0.12607
0.14499
0.16673
0.14499
0.29162
0.16673
0.12607
0.14499
0.14499
0.12607
0.22051
0.16673
0.16673
0.16673
0.22051
0.16673
0.16673
0.16673
0.12607
0.29162
0.12607
0.10963
0.16673
0.16673
0.22051
0.25358
0.19174
0.12607
0.16673
0.22051
0.14499
0.19174
0.14499
0.14499
0.12607
0.14499
0.16673
0.10963
0.14499
0.12607
0.12607
0.19174
0.16673
0.19174
0.19174
0.12607
0.12607
0.19174
0.19174
0.10963
0.14499
0.22051
0.19174
0.16673
0.10963
0.14499
0.14499
0.10963
0.14499
0.22051
0.14499
0.16673
0.14499
0.16673
0.14499
0.16673
0.12607
0.10963
0.19174
0.12607
0.14499
0.14499
0.14499
0.14499
0.10963
0.14499
0.14499
0.14499
0.19174
0.14499
0.12607
0.19174
0.16673
0.16673
0.14499
0.12607
0.14499
0.12607
0.25358
0.14189
0.12338
0.070545
0.10729
0.10729
0.070545
0.081127
0.10729
0.093296
0.093296
0.12338
0.093296
0.14189
0.14189
0.2158
0.14189
0.10729
0.081127
0.093296
0.10729
0.093296
0.081127
0.12338
0.061343
0.070545
0.081127
0.10729
0.081127
0.12338
0.16317
0.081127
0.081127
0.10729
0.093296
0.093296
0.061343
0.081127
0.093296
0.061343
0.070545
0.070545
0.061343
0.081127
0.081127
0.093296
0.070545
0.070545
0.10729
0.081127
0.12338
0.093296
0.081127
0.093296
0.070545
0.081127
0.10729
0.093296
0.14189
0.093296
0.10729
0.10729
0.081127
0.093296
0.093296
0.070545
0.061343
0.12338
0.061343
0.061343
0.053342
0.061343
0.070545
0.061343
0.053342
0.081127
0.070545
0.061343
0.061343
0.053342
0.061343
0.070545
0.053342
0.061343
0.081127
0.070545
0.081127
0.093296
0.081127
0.093296
0.093296
0.093296
0.10729
0.070545
0.070545
0.070545
0.10729
0.081127
0.081127
0.070545
0.093296
0.070545
0.053342
0.070545
0.061343
0.061343
0.061343
0.093296
0.053342
0.070545
0.10729
0.046384
0.061343
0.061343
0.053342
0.053342
0.081127
0.070545
0.093296
0.10729
0.061343
0.040334
0.061343
0.061343
0.061343
0.093296
0.061343
0.070545
0.070545
0.13015
0.17212
0.11317
0.14967
0.14967
0.17212
0.11317
0.14967
0.17212
0.17212
0.19794
0.14967
0.098411
0.085575
0.11317
0.11317
0.14967
0.11317
0.14967
0.13015
0.13015
0.14967
0.14967
0.13015
0.14967
0.17212
0.17212
0.22763
0.13015
0.14967
0.19794
0.19794
0.14967
0.11317
0.13015
0.11317
0.11317
0.13015
0.11317
0.13015
0.085575
0.085575
0.17212
0.098411
0.14967
0.17212
0.085575
0.098411
0.098411
0.17212
0.13015
0.13015
0.14967
0.11317
0.11317
0.11317
0.11317
0.098411
0.13015
0.098411
0.11317
0.085575
0.19794
0.14967
0.11317
0.13015
0.19794
0.14967
0.14967
0.19794
0.14967
0.14967
0.14967
0.11317
0.17212
0.13015
0.11317
0.14967
0.14967
0.14967
0.13015
0.14967
0.098411
0.13015
0.11317
0.19794
0.17212
0.19794
0.14967
0.14967
0.13015
0.14967
0.19794
0.17212
0.14967
0.14967
0.26178
0.19794
0.19794
0.19794
0.17212
0.14967
0.19794
0.19794
0.19794
0.14967
0.14967
0.14967
0.19794
0.13015
0.11317
0.13015
0.098411
0.17212
0.19794
0.14967
0.11317
0.19794
0.19794
0.13015
0.13015
0.14967
0.14967
0.13015
0.13015
0.23168
0.23168
0.20146
0.23168
0.20146
0.23168
0.15233
0.20146
0.23168
0.26643
0.26643
0.30639
0.17518
0.15233
0.15233
0.23168
0.15233
0.15233
0.15233
0.20146
0.26643
0.15233
0.20146
0.15233
0.15233
0.15233
0.20146
0.15233
0.15233
0.20146
0.15233
0.15233
0.17518
0.17518
0.17518
0.20146
0.20146
0.20146
0.17518
0.17518
0.15233
0.20146
0.23168
0.26643
0.17518
0.17518
0.20146
0.17518
0.15233
0.17518
0.20146
0.17518
0.15233
0.17518
0.23168
0.15233
0.23168
0.15233
0.15233
0.15233
0.15233
0.15233
0.15233
0.30639
0.15233
0.15233
0.15233
0.15233
0.20146
0.15233
0.15233
0.15233
0.11887
0.10337
0.11887
0.1367
0.10337
0.11887
0.10337
0.11887
0.2079
0.2079
0.1367
0.15721
0.1367
0.15721
0.18079
0.1367
0.10337
0.1367
0.18079
0.1367
0.10337
0.10337
0.18079
0.11887
0.10337
0.10337
0.11887
0.11887
0.11887
0.11887
0.18079
0.10337
0.1367
0.11887
0.11887
0.1367
0.15721
0.11887
0.11887
0.10337
0.10337
0.11887
0.1367
0.10337
0.10337
0.1367
0.11887
0.11887
0.10337
0.11887
0.10337
0.10337
0.10337
0.10337
0.11887
0.10337
0.10337
0.10337
0.10337
0.10337
0.10337
0.10337
0.10337
0.10337
0.1367
0.10337
0.10337
0.10337
0.11887
0.10337
0.15721
0.10337
0.10337